+ 0.5 0 1 poisson 1500 ------- 1 0.0 1.0 0 0
- 0.5 0 1 poisson 1500 ------- 1 0.0 1.0 0 0
r 0.522 0 1 poisson 1500 ------- 1 0.0 1.0 0 0
+ 1.458537 0 1 poisson 1500 ------- 1 0.0 1.0 1 1
- 1.458537 0 1 poisson 1500 ------- 1 0.0 1.0 1 1
r 1.480537 0 1 poisson 1500 ------- 1 0.0 1.0 1 1
+ 1.529001 0 1 poisson 1500 ------- 1 0.0 1.0 2 2
- 1.529001 0 1 poisson 1500 ------- 1 0.0 1.0 2 2
r 1.551001 0 1 poisson 1500 ------- 1 0.0 1.0 2 2
+ 2.039504 0 1 poisson 1500 ------- 1 0.0 1.0 3 3
- 2.039504 0 1 poisson 1500 ------- 1 0.0 1.0 3 3
r 2.061504 0 1 poisson 1500 ------- 1 0.0 1.0 3 3
+ 2.330987 0 1 poisson 1500 ------- 1 0.0 1.0 4 4
- 2.330987 0 1 poisson 1500 ------- 1 0.0 1.0 4 4
r 2.352987 0 1 poisson 1500 ------- 1 0.0 1.0 4 4
+ 2.429185 0 1 poisson 1500 ------- 1 0.0 1.0 5 5
- 2.429185 0 1 poisson 1500 ------- 1 0.0 1.0 5 5
r 2.451185 0 1 poisson 1500 ------- 1 0.0 1.0 5 5
+ 2.456089 0 1 poisson 1500 ------- 1 0.0 1.0 6 6
- 2.456089 0 1 poisson 1500 ------- 1 0.0 1.0 6 6
r 2.478089 0 1 poisson 1500 ------- 1 0.0 1.0 6 6
+ 2.59549 0 1 poisson 1500 ------- 1 0.0 1.0 7 7
- 2.59549 0 1 poisson 1500 ------- 1 0.0 1.0 7 7
r 2.61749 0 1 poisson 1500 ------- 1 0.0 1.0 7 7
+ 2.61982 0 1 poisson 1500 ------- 1 0.0 1.0 8 8
- 2.61982 0 1 poisson 1500 ------- 1 0.0 1.0 8 8
r 2.64182 0 1 poisson 1500 ------- 1 0.0 1.0 8 8
+ 2.793804 0 1 poisson 1500 ------- 1 0.0 1.0 9 9
- 2.793804 0 1 poisson 1500 ------- 1 0.0 1.0 9 9
r 2.815804 0 1 poisson 1500 ------- 1 0.0 1.0 9 9
+ 2.847572 0 1 poisson 1500 ------- 1 0.0 1.0 10 10
- 2.847572 0 1 poisson 1500 ------- 1 0.0 1.0 10 10
r 2.869572 0 1 poisson 1500 ------- 1 0.0 1.0 10 10
+ 2.988471 0 1 poisson 1500 ------- 1 0.0 1.0 11 11
- 2.988471 0 1 poisson 1500 ------- 1 0.0 1.0 11 11
+ 3.00992 0 1 poisson 1500 ------- 1 0.0 1.0 12 12
- 3.00992 0 1 poisson 1500 ------- 1 0.0 1.0 12 12
r 3.010471 0 1 poisson 1500 ------- 1 0.0 1.0 11 11
r 3.03192 0 1 poisson 1500 ------- 1 0.0 1.0 12 12
+ 3.22676 0 1 poisson 1500 ------- 1 0.0 1.0 13 13
- 3.22676 0 1 poisson 1500 ------- 1 0.0 1.0 13 13
r 3.24876 0 1 poisson 1500 ------- 1 0.0 1.0 13 13
+ 3.604921 0 1 poisson 1500 ------- 1 0.0 1.0 14 14
- 3.604921 0 1 poisson 1500 ------- 1 0.0 1.0 14 14
r 3.626921 0 1 poisson 1500 ------- 1 0.0 1.0 14 14
+ 3.658463 0 1 poisson 1500 ------- 1 0.0 1.0 15 15
- 3.658463 0 1 poisson 1500 ------- 1 0.0 1.0 15 15
r 3.680463 0 1 poisson 1500 ------- 1 0.0 1.0 15 15
+ 3.919252 0 1 poisson 1500 ------- 1 0.0 1.0 16 16
- 3.919252 0 1 poisson 1500 ------- 1 0.0 1.0 16 16
+ 3.937389 0 1 poisson 1500 ------- 1 0.0 1.0 17 17
- 3.937389 0 1 poisson 1500 ------- 1 0.0 1.0 17 17
r 3.941252 0 1 poisson 1500 ------- 1 0.0 1.0 16 16
r 3.959389 0 1 poisson 1500 ------- 1 0.0 1.0 17 17
+ 4.040448 0 1 poisson 1500 ------- 1 0.0 1.0 18 18
- 4.040448 0 1 poisson 1500 ------- 1 0.0 1.0 18 18
r 4.062448 0 1 poisson 1500 ------- 1 0.0 1.0 18 18
+ 4.249738 0 1 poisson 1500 ------- 1 0.0 1.0 19 19
- 4.249738 0 1 poisson 1500 ------- 1 0.0 1.0 19 19
r 4.271738 0 1 poisson 1500 ------- 1 0.0 1.0 19 19
+ 4.533296 0 1 poisson 1500 ------- 1 0.0 1.0 20 20
- 4.533296 0 1 poisson 1500 ------- 1 0.0 1.0 20 20
r 4.555296 0 1 poisson 1500 ------- 1 0.0 1.0 20 20
+ 4.559024 0 1 poisson 1500 ------- 1 0.0 1.0 21 21
- 4.559024 0 1 poisson 1500 ------- 1 0.0 1.0 21 21
r 4.581024 0 1 poisson 1500 ------- 1 0.0 1.0 21 21
+ 4.685435 0 1 poisson 1500 ------- 1 0.0 1.0 22 22
- 4.685435 0 1 poisson 1500 ------- 1 0.0 1.0 22 22
r 4.707435 0 1 poisson 1500 ------- 1 0.0 1.0 22 22
+ 4.84797 0 1 poisson 1500 ------- 1 0.0 1.0 23 23
- 4.84797 0 1 poisson 1500 ------- 1 0.0 1.0 23 23
r 4.86997 0 1 poisson 1500 ------- 1 0.0 1.0 23 23
+ 4.955347 0 1 poisson 1500 ------- 1 0.0 1.0 24 24
- 4.955347 0 1 poisson 1500 ------- 1 0.0 1.0 24 24
r 4.977347 0 1 poisson 1500 ------- 1 0.0 1.0 24 24
+ 5.03413 0 1 poisson 1500 ------- 1 0.0 1.0 25 25
- 5.03413 0 1 poisson 1500 ------- 1 0.0 1.0 25 25
r 5.05613 0 1 poisson 1500 ------- 1 0.0 1.0 25 25
+ 5.125729 0 1 poisson 1500 ------- 1 0.0 1.0 26 26
- 5.125729 0 1 poisson 1500 ------- 1 0.0 1.0 26 26
r 5.147729 0 1 poisson 1500 ------- 1 0.0 1.0 26 26
+ 5.169856 0 1 poisson 1500 ------- 1 0.0 1.0 27 27
- 5.169856 0 1 poisson 1500 ------- 1 0.0 1.0 27 27
+ 5.187666 0 1 poisson 1500 ------- 1 0.0 1.0 28 28
- 5.187666 0 1 poisson 1500 ------- 1 0.0 1.0 28 28
r 5.191856 0 1 poisson 1500 ------- 1 0.0 1.0 27 27
+ 5.208614 0 1 poisson 1500 ------- 1 0.0 1.0 29 29
- 5.208614 0 1 poisson 1500 ------- 1 0.0 1.0 29 29
r 5.209666 0 1 poisson 1500 ------- 1 0.0 1.0 28 28
r 5.230614 0 1 poisson 1500 ------- 1 0.0 1.0 29 29
+ 5.391869 0 1 poisson 1500 ------- 1 0.0 1.0 30 30
- 5.391869 0 1 poisson 1500 ------- 1 0.0 1.0 30 30
r 5.413869 0 1 poisson 1500 ------- 1 0.0 1.0 30 30
+ 5.562511 0 1 poisson 1500 ------- 1 0.0 1.0 31 31
- 5.562511 0 1 poisson 1500 ------- 1 0.0 1.0 31 31
+ 5.581857 0 1 poisson 1500 ------- 1 0.0 1.0 32 32
- 5.581857 0 1 poisson 1500 ------- 1 0.0 1.0 32 32
r 5.584511 0 1 poisson 1500 ------- 1 0.0 1.0 31 31
r 5.603857 0 1 poisson 1500 ------- 1 0.0 1.0 32 32
+ 5.628606 0 1 poisson 1500 ------- 1 0.0 1.0 33 33
- 5.628606 0 1 poisson 1500 ------- 1 0.0 1.0 33 33
r 5.650606 0 1 poisson 1500 ------- 1 0.0 1.0 33 33
+ 5.661186 0 1 poisson 1500 ------- 1 0.0 1.0 34 34
- 5.661186 0 1 poisson 1500 ------- 1 0.0 1.0 34 34
+ 5.673172 0 1 poisson 1500 ------- 1 0.0 1.0 35 35
- 5.673186 0 1 poisson 1500 ------- 1 0.0 1.0 35 35
r 5.683186 0 1 poisson 1500 ------- 1 0.0 1.0 34 34
r 5.695186 0 1 poisson 1500 ------- 1 0.0 1.0 35 35
+ 5.781482 0 1 poisson 1500 ------- 1 0.0 1.0 36 36
- 5.781482 0 1 poisson 1500 ------- 1 0.0 1.0 36 36
r 5.803482 0 1 poisson 1500 ------- 1 0.0 1.0 36 36
+ 6.047233 0 1 poisson 1500 ------- 1 0.0 1.0 37 37
- 6.047233 0 1 poisson 1500 ------- 1 0.0 1.0 37 37
r 6.069233 0 1 poisson 1500 ------- 1 0.0 1.0 37 37
+ 6.155932 0 1 poisson 1500 ------- 1 0.0 1.0 38 38
- 6.155932 0 1 poisson 1500 ------- 1 0.0 1.0 38 38
r 6.177932 0 1 poisson 1500 ------- 1 0.0 1.0 38 38
+ 6.356896 0 1 poisson 1500 ------- 1 0.0 1.0 39 39
- 6.356896 0 1 poisson 1500 ------- 1 0.0 1.0 39 39
+ 6.371225 0 1 poisson 1500 ------- 1 0.0 1.0 40 40
- 6.371225 0 1 poisson 1500 ------- 1 0.0 1.0 40 40
+ 6.377853 0 1 poisson 1500 ------- 1 0.0 1.0 41 41
r 6.378896 0 1 poisson 1500 ------- 1 0.0 1.0 39 39
- 6.383225 0 1 poisson 1500 ------- 1 0.0 1.0 41 41
+ 6.391655 0 1 poisson 1500 ------- 1 0.0 1.0 42 42
r 6.393225 0 1 poisson 1500 ------- 1 0.0 1.0 40 40
- 6.395225 0 1 poisson 1500 ------- 1 0.0 1.0 42 42
r 6.405225 0 1 poisson 1500 ------- 1 0.0 1.0 41 41
r 6.417225 0 1 poisson 1500 ------- 1 0.0 1.0 42 42
+ 6.654332 0 1 poisson 1500 ------- 1 0.0 1.0 43 43
- 6.654332 0 1 poisson 1500 ------- 1 0.0 1.0 43 43
r 6.676332 0 1 poisson 1500 ------- 1 0.0 1.0 43 43
+ 6.99518 0 1 poisson 1500 ------- 1 0.0 1.0 44 44
- 6.99518 0 1 poisson 1500 ------- 1 0.0 1.0 44 44
r 7.01718 0 1 poisson 1500 ------- 1 0.0 1.0 44 44
+ 7.538472 0 1 poisson 1500 ------- 1 0.0 1.0 45 45
- 7.538472 0 1 poisson 1500 ------- 1 0.0 1.0 45 45
r 7.560472 0 1 poisson 1500 ------- 1 0.0 1.0 45 45
+ 7.60077 0 1 poisson 1500 ------- 1 0.0 1.0 46 46
- 7.60077 0 1 poisson 1500 ------- 1 0.0 1.0 46 46
r 7.62277 0 1 poisson 1500 ------- 1 0.0 1.0 46 46
+ 7.731768 0 1 poisson 1500 ------- 1 0.0 1.0 47 47
- 7.731768 0 1 poisson 1500 ------- 1 0.0 1.0 47 47
r 7.753768 0 1 poisson 1500 ------- 1 0.0 1.0 47 47
+ 7.983135 0 1 poisson 1500 ------- 1 0.0 1.0 48 48
- 7.983135 0 1 poisson 1500 ------- 1 0.0 1.0 48 48
r 8.005135 0 1 poisson 1500 ------- 1 0.0 1.0 48 48
+ 8.031439 0 1 poisson 1500 ------- 1 0.0 1.0 49 49
- 8.031439 0 1 poisson 1500 ------- 1 0.0 1.0 49 49
r 8.053439 0 1 poisson 1500 ------- 1 0.0 1.0 49 49
+ 8.194484 0 1 poisson 1500 ------- 1 0.0 1.0 50 50
- 8.194484 0 1 poisson 1500 ------- 1 0.0 1.0 50 50
r 8.216484 0 1 poisson 1500 ------- 1 0.0 1.0 50 50
+ 8.237512 0 1 poisson 1500 ------- 1 0.0 1.0 51 51
- 8.237512 0 1 poisson 1500 ------- 1 0.0 1.0 51 51
r 8.259512 0 1 poisson 1500 ------- 1 0.0 1.0 51 51
+ 8.310388 0 1 poisson 1500 ------- 1 0.0 1.0 52 52
- 8.310388 0 1 poisson 1500 ------- 1 0.0 1.0 52 52
+ 8.326185 0 1 poisson 1500 ------- 1 0.0 1.0 53 53
- 8.326185 0 1 poisson 1500 ------- 1 0.0 1.0 53 53
r 8.332388 0 1 poisson 1500 ------- 1 0.0 1.0 52 52
r 8.348185 0 1 poisson 1500 ------- 1 0.0 1.0 53 53
+ 8.486995 0 1 poisson 1500 ------- 1 0.0 1.0 54 54
- 8.486995 0 1 poisson 1500 ------- 1 0.0 1.0 54 54
r 8.508995 0 1 poisson 1500 ------- 1 0.0 1.0 54 54
+ 8.557684 0 1 poisson 1500 ------- 1 0.0 1.0 55 55
- 8.557684 0 1 poisson 1500 ------- 1 0.0 1.0 55 55
r 8.579684 0 1 poisson 1500 ------- 1 0.0 1.0 55 55
+ 8.66017 0 1 poisson 1500 ------- 1 0.0 1.0 56 56
- 8.66017 0 1 poisson 1500 ------- 1 0.0 1.0 56 56
r 8.68217 0 1 poisson 1500 ------- 1 0.0 1.0 56 56
+ 9.091148 0 1 poisson 1500 ------- 1 0.0 1.0 57 57
- 9.091148 0 1 poisson 1500 ------- 1 0.0 1.0 57 57
r 9.113148 0 1 poisson 1500 ------- 1 0.0 1.0 57 57
+ 9.225167 0 1 poisson 1500 ------- 1 0.0 1.0 58 58
- 9.225167 0 1 poisson 1500 ------- 1 0.0 1.0 58 58
r 9.247167 0 1 poisson 1500 ------- 1 0.0 1.0 58 58
+ 9.42687 0 1 poisson 1500 ------- 1 0.0 1.0 59 59
- 9.42687 0 1 poisson 1500 ------- 1 0.0 1.0 59 59
r 9.44887 0 1 poisson 1500 ------- 1 0.0 1.0 59 59
+ 9.45592 0 1 poisson 1500 ------- 1 0.0 1.0 60 60
- 9.45592 0 1 poisson 1500 ------- 1 0.0 1.0 60 60
+ 9.462478 0 1 poisson 1500 ------- 1 0.0 1.0 61 61
- 9.46792 0 1 poisson 1500 ------- 1 0.0 1.0 61 61
r 9.47792 0 1 poisson 1500 ------- 1 0.0 1.0 60 60
r 9.48992 0 1 poisson 1500 ------- 1 0.0 1.0 61 61
+ 9.493423 0 1 poisson 1500 ------- 1 0.0 1.0 62 62
- 9.493423 0 1 poisson 1500 ------- 1 0.0 1.0 62 62
r 9.515423 0 1 poisson 1500 ------- 1 0.0 1.0 62 62
+ 9.682581 0 1 poisson 1500 ------- 1 0.0 1.0 63 63
- 9.682581 0 1 poisson 1500 ------- 1 0.0 1.0 63 63
r 9.704581 0 1 poisson 1500 ------- 1 0.0 1.0 63 63
+ 9.726253 0 1 poisson 1500 ------- 1 0.0 1.0 64 64
- 9.726253 0 1 poisson 1500 ------- 1 0.0 1.0 64 64
r 9.748253 0 1 poisson 1500 ------- 1 0.0 1.0 64 64
+ 9.93288 0 1 poisson 1500 ------- 1 0.0 1.0 65 65
- 9.93288 0 1 poisson 1500 ------- 1 0.0 1.0 65 65
+ 9.935795 0 1 poisson 1500 ------- 1 0.0 1.0 66 66
- 9.94488 0 1 poisson 1500 ------- 1 0.0 1.0 66 66
r 9.95488 0 1 poisson 1500 ------- 1 0.0 1.0 65 65
r 9.96688 0 1 poisson 1500 ------- 1 0.0 1.0 66 66
