V -t * -v 1.0a5 -a 0
A -t * -n 1 -p 0 -o 0xffffffff -c 31 -a 1
A -t * -h 1 -m 2147483647 -s 0
c -t * -i 1 -n Blue
c -t * -i 2 -n Red
n -t * -a 0 -s 0 -S UP -v circle -c black -i black
n -t * -a 1 -s 1 -S UP -v circle -c black -i black
l -t * -s 0 -d 1 -S UP -r 1000000 -D 0.01 -c black
+ -t 0.5 -s 0 -d 1 -p cbr -e 1000 -c 2 -i 0 -a 2 -x {0.0 1.0 0 ------- null}
- -t 0.5 -s 0 -d 1 -p cbr -e 1000 -c 2 -i 0 -a 2 -x {0.0 1.0 0 ------- null}
h -t 0.5 -s 0 -d 1 -p cbr -e 1000 -c 2 -i 0 -a 2 -x {0.0 1.0 -1 ------- null}
+ -t 0.5 -s 0 -d 1 -p cbr -e 500 -c 2 -i 1 -a 2 -x {0.0 1.0 1 ------- null}
+ -t 0.505 -s 0 -d 1 -p cbr -e 1000 -c 2 -i 2 -a 2 -x {0.0 1.0 2 ------- null}
+ -t 0.505 -s 0 -d 1 -p cbr -e 500 -c 2 -i 3 -a 2 -x {0.0 1.0 3 ------- null}
- -t 0.508 -s 0 -d 1 -p cbr -e 500 -c 2 -i 1 -a 2 -x {0.0 1.0 1 ------- null}
h -t 0.508 -s 0 -d 1 -p cbr -e 500 -c 2 -i 1 -a 2 -x {0.0 1.0 -1 ------- null}
+ -t 0.51 -s 0 -d 1 -p cbr -e 1000 -c 2 -i 4 -a 2 -x {0.0 1.0 4 ------- null}
+ -t 0.51 -s 0 -d 1 -p cbr -e 500 -c 2 -i 5 -a 2 -x {0.0 1.0 5 ------- null}
- -t 0.512 -s 0 -d 1 -p cbr -e 1000 -c 2 -i 2 -a 2 -x {0.0 1.0 2 ------- null}
h -t 0.512 -s 0 -d 1 -p cbr -e 1000 -c 2 -i 2 -a 2 -x {0.0 1.0 -1 ------- null}
+ -t 0.515 -s 0 -d 1 -p cbr -e 1000 -c 2 -i 6 -a 2 -x {0.0 1.0 6 ------- null}
+ -t 0.515 -s 0 -d 1 -p cbr -e 500 -c 2 -i 7 -a 2 -x {0.0 1.0 7 ------- null}
r -t 0.518 -s 0 -d 1 -p cbr -e 1000 -c 2 -i 0 -a 2 -x {0.0 1.0 0 ------- null}
- -t 0.52 -s 0 -d 1 -p cbr -e 500 -c 2 -i 3 -a 2 -x {0.0 1.0 3 ------- null}
h -t 0.52 -s 0 -d 1 -p cbr -e 500 -c 2 -i 3 -a 2 -x {0.0 1.0 -1 ------- null}
+ -t 0.52 -s 0 -d 1 -p cbr -e 1000 -c 2 -i 8 -a 2 -x {0.0 1.0 8 ------- null}
+ -t 0.52 -s 0 -d 1 -p cbr -e 500 -c 2 -i 9 -a 2 -x {0.0 1.0 9 ------- null}
r -t 0.522 -s 0 -d 1 -p cbr -e 500 -c 2 -i 1 -a 2 -x {0.0 1.0 1 ------- null}
- -t 0.524 -s 0 -d 1 -p cbr -e 1000 -c 2 -i 4 -a 2 -x {0.0 1.0 4 ------- null}
h -t 0.524 -s 0 -d 1 -p cbr -e 1000 -c 2 -i 4 -a 2 -x {0.0 1.0 -1 ------- null}
+ -t 0.525 -s 0 -d 1 -p cbr -e 1000 -c 2 -i 10 -a 2 -x {0.0 1.0 10 ------- null}
+ -t 0.525 -s 0 -d 1 -p cbr -e 500 -c 2 -i 11 -a 2 -x {0.0 1.0 11 ------- null}
r -t 0.53 -s 0 -d 1 -p cbr -e 1000 -c 2 -i 2 -a 2 -x {0.0 1.0 2 ------- null}
+ -t 0.53 -s 0 -d 1 -p cbr -e 1000 -c 2 -i 12 -a 2 -x {0.0 1.0 12 ------- null}
+ -t 0.53 -s 0 -d 1 -p cbr -e 500 -c 2 -i 13 -a 2 -x {0.0 1.0 13 ------- null}
- -t 0.532 -s 0 -d 1 -p cbr -e 500 -c 2 -i 5 -a 2 -x {0.0 1.0 5 ------- null}
h -t 0.532 -s 0 -d 1 -p cbr -e 500 -c 2 -i 5 -a 2 -x {0.0 1.0 -1 ------- null}
r -t 0.534 -s 0 -d 1 -p cbr -e 500 -c 2 -i 3 -a 2 -x {0.0 1.0 3 ------- null}
+ -t 0.535 -s 0 -d 1 -p cbr -e 1000 -c 2 -i 14 -a 2 -x {0.0 1.0 14 ------- null}
+ -t 0.535 -s 0 -d 1 -p cbr -e 500 -c 2 -i 15 -a 2 -x {0.0 1.0 15 ------- null}
- -t 0.536 -s 0 -d 1 -p cbr -e 1000 -c 2 -i 6 -a 2 -x {0.0 1.0 6 ------- null}
h -t 0.536 -s 0 -d 1 -p cbr -e 1000 -c 2 -i 6 -a 2 -x {0.0 1.0 -1 ------- null}
+ -t 0.54 -s 0 -d 1 -p cbr -e 1000 -c 2 -i 16 -a 2 -x {0.0 1.0 16 ------- null}
+ -t 0.54 -s 0 -d 1 -p cbr -e 500 -c 2 -i 17 -a 2 -x {0.0 1.0 17 ------- null}
r -t 0.542 -s 0 -d 1 -p cbr -e 1000 -c 2 -i 4 -a 2 -x {0.0 1.0 4 ------- null}
- -t 0.544 -s 0 -d 1 -p cbr -e 500 -c 2 -i 7 -a 2 -x {0.0 1.0 7 ------- null}
h -t 0.544 -s 0 -d 1 -p cbr -e 500 -c 2 -i 7 -a 2 -x {0.0 1.0 -1 ------- null}
+ -t 0.545 -s 0 -d 1 -p cbr -e 1000 -c 2 -i 18 -a 2 -x {0.0 1.0 18 ------- null}
+ -t 0.545 -s 0 -d 1 -p cbr -e 500 -c 2 -i 19 -a 2 -x {0.0 1.0 19 ------- null}
r -t 0.546 -s 0 -d 1 -p cbr -e 500 -c 2 -i 5 -a 2 -x {0.0 1.0 5 ------- null}
- -t 0.548 -s 0 -d 1 -p cbr -e 1000 -c 2 -i 8 -a 2 -x {0.0 1.0 8 ------- null}
h -t 0.548 -s 0 -d 1 -p cbr -e 1000 -c 2 -i 8 -a 2 -x {0.0 1.0 -1 ------- null}
+ -t 0.55 -s 0 -d 1 -p cbr -e 1000 -c 2 -i 20 -a 2 -x {0.0 1.0 20 ------- null}
+ -t 0.55 -s 0 -d 1 -p cbr -e 500 -c 2 -i 21 -a 2 -x {0.0 1.0 21 ------- null}
r -t 0.554 -s 0 -d 1 -p cbr -e 1000 -c 2 -i 6 -a 2 -x {0.0 1.0 6 ------- null}
+ -t 0.555 -s 0 -d 1 -p cbr -e 1000 -c 2 -i 22 -a 2 -x {0.0 1.0 22 ------- null}
+ -t 0.555 -s 0 -d 1 -p cbr -e 500 -c 2 -i 23 -a 2 -x {0.0 1.0 23 ------- null}
- -t 0.556 -s 0 -d 1 -p cbr -e 500 -c 2 -i 9 -a 2 -x {0.0 1.0 9 ------- null}
h -t 0.556 -s 0 -d 1 -p cbr -e 500 -c 2 -i 9 -a 2 -x {0.0 1.0 -1 ------- null}
r -t 0.558 -s 0 -d 1 -p cbr -e 500 -c 2 -i 7 -a 2 -x {0.0 1.0 7 ------- null}
+ -t 0.56 -s 0 -d 1 -p cbr -e 1000 -c 2 -i 24 -a 2 -x {0.0 1.0 24 ------- null}
+ -t 0.56 -s 0 -d 1 -p cbr -e 500 -c 2 -i 25 -a 2 -x {0.0 1.0 25 ------- null}
- -t 0.56 -s 0 -d 1 -p cbr -e 1000 -c 2 -i 10 -a 2 -x {0.0 1.0 10 ------- null}
h -t 0.56 -s 0 -d 1 -p cbr -e 1000 -c 2 -i 10 -a 2 -x {0.0 1.0 -1 ------- null}
+ -t 0.565 -s 0 -d 1 -p cbr -e 1000 -c 2 -i 26 -a 2 -x {0.0 1.0 26 ------- null}
+ -t 0.565 -s 0 -d 1 -p cbr -e 500 -c 2 -i 27 -a 2 -x {0.0 1.0 27 ------- null}
r -t 0.566 -s 0 -d 1 -p cbr -e 1000 -c 2 -i 8 -a 2 -x {0.0 1.0 8 ------- null}
- -t 0.568 -s 0 -d 1 -p cbr -e 500 -c 2 -i 11 -a 2 -x {0.0 1.0 11 ------- null}
h -t 0.568 -s 0 -d 1 -p cbr -e 500 -c 2 -i 11 -a 2 -x {0.0 1.0 -1 ------- null}
r -t 0.57 -s 0 -d 1 -p cbr -e 500 -c 2 -i 9 -a 2 -x {0.0 1.0 9 ------- null}
+ -t 0.57 -s 0 -d 1 -p cbr -e 1000 -c 2 -i 28 -a 2 -x {0.0 1.0 28 ------- null}
+ -t 0.57 -s 0 -d 1 -p cbr -e 500 -c 2 -i 29 -a 2 -x {0.0 1.0 29 ------- null}
- -t 0.572 -s 0 -d 1 -p cbr -e 1000 -c 2 -i 12 -a 2 -x {0.0 1.0 12 ------- null}
h -t 0.572 -s 0 -d 1 -p cbr -e 1000 -c 2 -i 12 -a 2 -x {0.0 1.0 -1 ------- null}
+ -t 0.575 -s 0 -d 1 -p cbr -e 1000 -c 2 -i 30 -a 2 -x {0.0 1.0 30 ------- null}
+ -t 0.575 -s 0 -d 1 -p cbr -e 500 -c 2 -i 31 -a 2 -x {0.0 1.0 31 ------- null}
r -t 0.578 -s 0 -d 1 -p cbr -e 1000 -c 2 -i 10 -a 2 -x {0.0 1.0 10 ------- null}
- -t 0.58 -s 0 -d 1 -p cbr -e 500 -c 2 -i 13 -a 2 -x {0.0 1.0 13 ------- null}
h -t 0.58 -s 0 -d 1 -p cbr -e 500 -c 2 -i 13 -a 2 -x {0.0 1.0 -1 ------- null}
+ -t 0.58 -s 0 -d 1 -p cbr -e 1000 -c 2 -i 32 -a 2 -x {0.0 1.0 32 ------- null}
+ -t 0.58 -s 0 -d 1 -p cbr -e 500 -c 2 -i 33 -a 2 -x {0.0 1.0 33 ------- null}
r -t 0.582 -s 0 -d 1 -p cbr -e 500 -c 2 -i 11 -a 2 -x {0.0 1.0 11 ------- null}
- -t 0.584 -s 0 -d 1 -p cbr -e 1000 -c 2 -i 14 -a 2 -x {0.0 1.0 14 ------- null}
h -t 0.584 -s 0 -d 1 -p cbr -e 1000 -c 2 -i 14 -a 2 -x {0.0 1.0 -1 ------- null}
+ -t 0.585 -s 0 -d 1 -p cbr -e 1000 -c 2 -i 34 -a 2 -x {0.0 1.0 34 ------- null}
+ -t 0.585 -s 0 -d 1 -p cbr -e 500 -c 2 -i 35 -a 2 -x {0.0 1.0 35 ------- null}
r -t 0.59 -s 0 -d 1 -p cbr -e 1000 -c 2 -i 12 -a 2 -x {0.0 1.0 12 ------- null}
+ -t 0.59 -s 0 -d 1 -p cbr -e 1000 -c 2 -i 36 -a 2 -x {0.0 1.0 36 ------- null}
+ -t 0.59 -s 0 -d 1 -p cbr -e 500 -c 2 -i 37 -a 2 -x {0.0 1.0 37 ------- null}
- -t 0.592 -s 0 -d 1 -p cbr -e 500 -c 2 -i 15 -a 2 -x {0.0 1.0 15 ------- null}
h -t 0.592 -s 0 -d 1 -p cbr -e 500 -c 2 -i 15 -a 2 -x {0.0 1.0 -1 ------- null}
r -t 0.594 -s 0 -d 1 -p cbr -e 500 -c 2 -i 13 -a 2 -x {0.0 1.0 13 ------- null}
+ -t 0.595 -s 0 -d 1 -p cbr -e 1000 -c 2 -i 38 -a 2 -x {0.0 1.0 38 ------- null}
+ -t 0.595 -s 0 -d 1 -p cbr -e 500 -c 2 -i 39 -a 2 -x {0.0 1.0 39 ------- null}
- -t 0.596 -s 0 -d 1 -p cbr -e 1000 -c 2 -i 16 -a 2 -x {0.0 1.0 16 ------- null}
h -t 0.596 -s 0 -d 1 -p cbr -e 1000 -c 2 -i 16 -a 2 -x {0.0 1.0 -1 ------- null}
+ -t 0.6 -s 0 -d 1 -p cbr -e 1000 -c 2 -i 40 -a 2 -x {0.0 1.0 40 ------- null}
+ -t 0.6 -s 0 -d 1 -p cbr -e 500 -c 2 -i 41 -a 2 -x {0.0 1.0 41 ------- null}
r -t 0.602 -s 0 -d 1 -p cbr -e 1000 -c 2 -i 14 -a 2 -x {0.0 1.0 14 ------- null}
- -t 0.604 -s 0 -d 1 -p cbr -e 500 -c 2 -i 17 -a 2 -x {0.0 1.0 17 ------- null}
h -t 0.604 -s 0 -d 1 -p cbr -e 500 -c 2 -i 17 -a 2 -x {0.0 1.0 -1 ------- null}
+ -t 0.605 -s 0 -d 1 -p cbr -e 1000 -c 2 -i 42 -a 2 -x {0.0 1.0 42 ------- null}
+ -t 0.605 -s 0 -d 1 -p cbr -e 500 -c 2 -i 43 -a 2 -x {0.0 1.0 43 ------- null}
r -t 0.606 -s 0 -d 1 -p cbr -e 500 -c 2 -i 15 -a 2 -x {0.0 1.0 15 ------- null}
- -t 0.608 -s 0 -d 1 -p cbr -e 1000 -c 2 -i 18 -a 2 -x {0.0 1.0 18 ------- null}
h -t 0.608 -s 0 -d 1 -p cbr -e 1000 -c 2 -i 18 -a 2 -x {0.0 1.0 -1 ------- null}
+ -t 0.61 -s 0 -d 1 -p cbr -e 1000 -c 2 -i 44 -a 2 -x {0.0 1.0 44 ------- null}
+ -t 0.61 -s 0 -d 1 -p cbr -e 500 -c 2 -i 45 -a 2 -x {0.0 1.0 45 ------- null}
r -t 0.614 -s 0 -d 1 -p cbr -e 1000 -c 2 -i 16 -a 2 -x {0.0 1.0 16 ------- null}
+ -t 0.615 -s 0 -d 1 -p cbr -e 1000 -c 2 -i 46 -a 2 -x {0.0 1.0 46 ------- null}
+ -t 0.615 -s 0 -d 1 -p cbr -e 500 -c 2 -i 47 -a 2 -x {0.0 1.0 47 ------- null}
- -t 0.616 -s 0 -d 1 -p cbr -e 500 -c 2 -i 19 -a 2 -x {0.0 1.0 19 ------- null}
h -t 0.616 -s 0 -d 1 -p cbr -e 500 -c 2 -i 19 -a 2 -x {0.0 1.0 -1 ------- null}
r -t 0.618 -s 0 -d 1 -p cbr -e 500 -c 2 -i 17 -a 2 -x {0.0 1.0 17 ------- null}
+ -t 0.62 -s 0 -d 1 -p cbr -e 1000 -c 2 -i 48 -a 2 -x {0.0 1.0 48 ------- null}
+ -t 0.62 -s 0 -d 1 -p cbr -e 500 -c 2 -i 49 -a 2 -x {0.0 1.0 49 ------- null}
- -t 0.62 -s 0 -d 1 -p cbr -e 1000 -c 2 -i 20 -a 2 -x {0.0 1.0 20 ------- null}
h -t 0.62 -s 0 -d 1 -p cbr -e 1000 -c 2 -i 20 -a 2 -x {0.0 1.0 -1 ------- null}
+ -t 0.625 -s 0 -d 1 -p cbr -e 1000 -c 2 -i 50 -a 2 -x {0.0 1.0 50 ------- null}
+ -t 0.625 -s 0 -d 1 -p cbr -e 500 -c 2 -i 51 -a 2 -x {0.0 1.0 51 ------- null}
r -t 0.626 -s 0 -d 1 -p cbr -e 1000 -c 2 -i 18 -a 2 -x {0.0 1.0 18 ------- null}
- -t 0.628 -s 0 -d 1 -p cbr -e 500 -c 2 -i 21 -a 2 -x {0.0 1.0 21 ------- null}
h -t 0.628 -s 0 -d 1 -p cbr -e 500 -c 2 -i 21 -a 2 -x {0.0 1.0 -1 ------- null}
r -t 0.63 -s 0 -d 1 -p cbr -e 500 -c 2 -i 19 -a 2 -x {0.0 1.0 19 ------- null}
+ -t 0.63 -s 0 -d 1 -p cbr -e 1000 -c 2 -i 52 -a 2 -x {0.0 1.0 52 ------- null}
+ -t 0.63 -s 0 -d 1 -p cbr -e 500 -c 2 -i 53 -a 2 -x {0.0 1.0 53 ------- null}
- -t 0.632 -s 0 -d 1 -p cbr -e 1000 -c 2 -i 22 -a 2 -x {0.0 1.0 22 ------- null}
h -t 0.632 -s 0 -d 1 -p cbr -e 1000 -c 2 -i 22 -a 2 -x {0.0 1.0 -1 ------- null}
+ -t 0.635 -s 0 -d 1 -p cbr -e 1000 -c 2 -i 54 -a 2 -x {0.0 1.0 54 ------- null}
+ -t 0.635 -s 0 -d 1 -p cbr -e 500 -c 2 -i 55 -a 2 -x {0.0 1.0 55 ------- null}
r -t 0.638 -s 0 -d 1 -p cbr -e 1000 -c 2 -i 20 -a 2 -x {0.0 1.0 20 ------- null}
- -t 0.64 -s 0 -d 1 -p cbr -e 500 -c 2 -i 23 -a 2 -x {0.0 1.0 23 ------- null}
h -t 0.64 -s 0 -d 1 -p cbr -e 500 -c 2 -i 23 -a 2 -x {0.0 1.0 -1 ------- null}
+ -t 0.64 -s 0 -d 1 -p cbr -e 1000 -c 2 -i 56 -a 2 -x {0.0 1.0 56 ------- null}
+ -t 0.64 -s 0 -d 1 -p cbr -e 500 -c 2 -i 57 -a 2 -x {0.0 1.0 57 ------- null}
r -t 0.642 -s 0 -d 1 -p cbr -e 500 -c 2 -i 21 -a 2 -x {0.0 1.0 21 ------- null}
- -t 0.644 -s 0 -d 1 -p cbr -e 1000 -c 2 -i 24 -a 2 -x {0.0 1.0 24 ------- null}
h -t 0.644 -s 0 -d 1 -p cbr -e 1000 -c 2 -i 24 -a 2 -x {0.0 1.0 -1 ------- null}
+ -t 0.645 -s 0 -d 1 -p cbr -e 1000 -c 2 -i 58 -a 2 -x {0.0 1.0 58 ------- null}
+ -t 0.645 -s 0 -d 1 -p cbr -e 500 -c 2 -i 59 -a 2 -x {0.0 1.0 59 ------- null}
r -t 0.65 -s 0 -d 1 -p cbr -e 1000 -c 2 -i 22 -a 2 -x {0.0 1.0 22 ------- null}
+ -t 0.65 -s 0 -d 1 -p cbr -e 1000 -c 2 -i 60 -a 2 -x {0.0 1.0 60 ------- null}
+ -t 0.65 -s 0 -d 1 -p cbr -e 500 -c 2 -i 61 -a 2 -x {0.0 1.0 61 ------- null}
- -t 0.652 -s 0 -d 1 -p cbr -e 500 -c 2 -i 25 -a 2 -x {0.0 1.0 25 ------- null}
h -t 0.652 -s 0 -d 1 -p cbr -e 500 -c 2 -i 25 -a 2 -x {0.0 1.0 -1 ------- null}
r -t 0.654 -s 0 -d 1 -p cbr -e 500 -c 2 -i 23 -a 2 -x {0.0 1.0 23 ------- null}
+ -t 0.655 -s 0 -d 1 -p cbr -e 1000 -c 2 -i 62 -a 2 -x {0.0 1.0 62 ------- null}
+ -t 0.655 -s 0 -d 1 -p cbr -e 500 -c 2 -i 63 -a 2 -x {0.0 1.0 63 ------- null}
- -t 0.656 -s 0 -d 1 -p cbr -e 1000 -c 2 -i 26 -a 2 -x {0.0 1.0 26 ------- null}
h -t 0.656 -s 0 -d 1 -p cbr -e 1000 -c 2 -i 26 -a 2 -x {0.0 1.0 -1 ------- null}
+ -t 0.66 -s 0 -d 1 -p cbr -e 1000 -c 2 -i 64 -a 2 -x {0.0 1.0 64 ------- null}
+ -t 0.66 -s 0 -d 1 -p cbr -e 500 -c 2 -i 65 -a 2 -x {0.0 1.0 65 ------- null}
r -t 0.662 -s 0 -d 1 -p cbr -e 1000 -c 2 -i 24 -a 2 -x {0.0 1.0 24 ------- null}
- -t 0.664 -s 0 -d 1 -p cbr -e 500 -c 2 -i 27 -a 2 -x {0.0 1.0 27 ------- null}
h -t 0.664 -s 0 -d 1 -p cbr -e 500 -c 2 -i 27 -a 2 -x {0.0 1.0 -1 ------- null}
+ -t 0.665 -s 0 -d 1 -p cbr -e 1000 -c 2 -i 66 -a 2 -x {0.0 1.0 66 ------- null}
+ -t 0.665 -s 0 -d 1 -p cbr -e 500 -c 2 -i 67 -a 2 -x {0.0 1.0 67 ------- null}
r -t 0.666 -s 0 -d 1 -p cbr -e 500 -c 2 -i 25 -a 2 -x {0.0 1.0 25 ------- null}
- -t 0.668 -s 0 -d 1 -p cbr -e 1000 -c 2 -i 28 -a 2 -x {0.0 1.0 28 ------- null}
h -t 0.668 -s 0 -d 1 -p cbr -e 1000 -c 2 -i 28 -a 2 -x {0.0 1.0 -1 ------- null}
+ -t 0.67 -s 0 -d 1 -p cbr -e 1000 -c 2 -i 68 -a 2 -x {0.0 1.0 68 ------- null}
+ -t 0.67 -s 0 -d 1 -p cbr -e 500 -c 2 -i 69 -a 2 -x {0.0 1.0 69 ------- null}
r -t 0.674 -s 0 -d 1 -p cbr -e 1000 -c 2 -i 26 -a 2 -x {0.0 1.0 26 ------- null}
+ -t 0.675 -s 0 -d 1 -p cbr -e 1000 -c 2 -i 70 -a 2 -x {0.0 1.0 70 ------- null}
+ -t 0.675 -s 0 -d 1 -p cbr -e 500 -c 2 -i 71 -a 2 -x {0.0 1.0 71 ------- null}
- -t 0.676 -s 0 -d 1 -p cbr -e 500 -c 2 -i 29 -a 2 -x {0.0 1.0 29 ------- null}
h -t 0.676 -s 0 -d 1 -p cbr -e 500 -c 2 -i 29 -a 2 -x {0.0 1.0 -1 ------- null}
r -t 0.678 -s 0 -d 1 -p cbr -e 500 -c 2 -i 27 -a 2 -x {0.0 1.0 27 ------- null}
+ -t 0.68 -s 0 -d 1 -p cbr -e 1000 -c 2 -i 72 -a 2 -x {0.0 1.0 72 ------- null}
+ -t 0.68 -s 0 -d 1 -p cbr -e 500 -c 2 -i 73 -a 2 -x {0.0 1.0 73 ------- null}
- -t 0.68 -s 0 -d 1 -p cbr -e 1000 -c 2 -i 30 -a 2 -x {0.0 1.0 30 ------- null}
h -t 0.68 -s 0 -d 1 -p cbr -e 1000 -c 2 -i 30 -a 2 -x {0.0 1.0 -1 ------- null}
+ -t 0.685 -s 0 -d 1 -p cbr -e 1000 -c 2 -i 74 -a 2 -x {0.0 1.0 74 ------- null}
+ -t 0.685 -s 0 -d 1 -p cbr -e 500 -c 2 -i 75 -a 2 -x {0.0 1.0 75 ------- null}
r -t 0.686 -s 0 -d 1 -p cbr -e 1000 -c 2 -i 28 -a 2 -x {0.0 1.0 28 ------- null}
- -t 0.688 -s 0 -d 1 -p cbr -e 500 -c 2 -i 31 -a 2 -x {0.0 1.0 31 ------- null}
h -t 0.688 -s 0 -d 1 -p cbr -e 500 -c 2 -i 31 -a 2 -x {0.0 1.0 -1 ------- null}
r -t 0.69 -s 0 -d 1 -p cbr -e 500 -c 2 -i 29 -a 2 -x {0.0 1.0 29 ------- null}
+ -t 0.69 -s 0 -d 1 -p cbr -e 1000 -c 2 -i 76 -a 2 -x {0.0 1.0 76 ------- null}
+ -t 0.69 -s 0 -d 1 -p cbr -e 500 -c 2 -i 77 -a 2 -x {0.0 1.0 77 ------- null}
- -t 0.692 -s 0 -d 1 -p cbr -e 1000 -c 2 -i 32 -a 2 -x {0.0 1.0 32 ------- null}
h -t 0.692 -s 0 -d 1 -p cbr -e 1000 -c 2 -i 32 -a 2 -x {0.0 1.0 -1 ------- null}
+ -t 0.695 -s 0 -d 1 -p cbr -e 1000 -c 2 -i 78 -a 2 -x {0.0 1.0 78 ------- null}
+ -t 0.695 -s 0 -d 1 -p cbr -e 500 -c 2 -i 79 -a 2 -x {0.0 1.0 79 ------- null}
r -t 0.698 -s 0 -d 1 -p cbr -e 1000 -c 2 -i 30 -a 2 -x {0.0 1.0 30 ------- null}
- -t 0.7 -s 0 -d 1 -p cbr -e 500 -c 2 -i 33 -a 2 -x {0.0 1.0 33 ------- null}
h -t 0.7 -s 0 -d 1 -p cbr -e 500 -c 2 -i 33 -a 2 -x {0.0 1.0 -1 ------- null}
+ -t 0.7 -s 0 -d 1 -p cbr -e 1000 -c 2 -i 80 -a 2 -x {0.0 1.0 80 ------- null}
+ -t 0.7 -s 0 -d 1 -p cbr -e 500 -c 2 -i 81 -a 2 -x {0.0 1.0 81 ------- null}
r -t 0.702 -s 0 -d 1 -p cbr -e 500 -c 2 -i 31 -a 2 -x {0.0 1.0 31 ------- null}
- -t 0.704 -s 0 -d 1 -p cbr -e 1000 -c 2 -i 34 -a 2 -x {0.0 1.0 34 ------- null}
h -t 0.704 -s 0 -d 1 -p cbr -e 1000 -c 2 -i 34 -a 2 -x {0.0 1.0 -1 ------- null}
+ -t 0.705 -s 0 -d 1 -p cbr -e 1000 -c 2 -i 82 -a 2 -x {0.0 1.0 82 ------- null}
+ -t 0.705 -s 0 -d 1 -p cbr -e 500 -c 2 -i 83 -a 2 -x {0.0 1.0 83 ------- null}
r -t 0.71 -s 0 -d 1 -p cbr -e 1000 -c 2 -i 32 -a 2 -x {0.0 1.0 32 ------- null}
+ -t 0.71 -s 0 -d 1 -p cbr -e 1000 -c 2 -i 84 -a 2 -x {0.0 1.0 84 ------- null}
d -t 0.71 -s 0 -d 1 -p cbr -e 1000 -c 2 -i 84 -a 2 -x {0.0 1.0 84 ------- null}
+ -t 0.71 -s 0 -d 1 -p cbr -e 500 -c 2 -i 85 -a 2 -x {0.0 1.0 85 ------- null}
d -t 0.71 -s 0 -d 1 -p cbr -e 500 -c 2 -i 85 -a 2 -x {0.0 1.0 85 ------- null}
- -t 0.712 -s 0 -d 1 -p cbr -e 500 -c 2 -i 35 -a 2 -x {0.0 1.0 35 ------- null}
h -t 0.712 -s 0 -d 1 -p cbr -e 500 -c 2 -i 35 -a 2 -x {0.0 1.0 -1 ------- null}
r -t 0.714 -s 0 -d 1 -p cbr -e 500 -c 2 -i 33 -a 2 -x {0.0 1.0 33 ------- null}
+ -t 0.715 -s 0 -d 1 -p cbr -e 1000 -c 2 -i 86 -a 2 -x {0.0 1.0 86 ------- null}
+ -t 0.715 -s 0 -d 1 -p cbr -e 500 -c 2 -i 87 -a 2 -x {0.0 1.0 87 ------- null}
d -t 0.715 -s 0 -d 1 -p cbr -e 500 -c 2 -i 87 -a 2 -x {0.0 1.0 87 ------- null}
- -t 0.716 -s 0 -d 1 -p cbr -e 1000 -c 2 -i 36 -a 2 -x {0.0 1.0 36 ------- null}
h -t 0.716 -s 0 -d 1 -p cbr -e 1000 -c 2 -i 36 -a 2 -x {0.0 1.0 -1 ------- null}
+ -t 0.72 -s 0 -d 1 -p cbr -e 1000 -c 2 -i 88 -a 2 -x {0.0 1.0 88 ------- null}
+ -t 0.72 -s 0 -d 1 -p cbr -e 500 -c 2 -i 89 -a 2 -x {0.0 1.0 89 ------- null}
d -t 0.72 -s 0 -d 1 -p cbr -e 500 -c 2 -i 89 -a 2 -x {0.0 1.0 89 ------- null}
r -t 0.722 -s 0 -d 1 -p cbr -e 1000 -c 2 -i 34 -a 2 -x {0.0 1.0 34 ------- null}
- -t 0.724 -s 0 -d 1 -p cbr -e 500 -c 2 -i 37 -a 2 -x {0.0 1.0 37 ------- null}
h -t 0.724 -s 0 -d 1 -p cbr -e 500 -c 2 -i 37 -a 2 -x {0.0 1.0 -1 ------- null}
+ -t 0.725 -s 0 -d 1 -p cbr -e 1000 -c 2 -i 90 -a 2 -x {0.0 1.0 90 ------- null}
+ -t 0.725 -s 0 -d 1 -p cbr -e 500 -c 2 -i 91 -a 2 -x {0.0 1.0 91 ------- null}
d -t 0.725 -s 0 -d 1 -p cbr -e 500 -c 2 -i 91 -a 2 -x {0.0 1.0 91 ------- null}
r -t 0.726 -s 0 -d 1 -p cbr -e 500 -c 2 -i 35 -a 2 -x {0.0 1.0 35 ------- null}
- -t 0.728 -s 0 -d 1 -p cbr -e 1000 -c 2 -i 38 -a 2 -x {0.0 1.0 38 ------- null}
h -t 0.728 -s 0 -d 1 -p cbr -e 1000 -c 2 -i 38 -a 2 -x {0.0 1.0 -1 ------- null}
+ -t 0.73 -s 0 -d 1 -p cbr -e 1000 -c 2 -i 92 -a 2 -x {0.0 1.0 92 ------- null}
+ -t 0.73 -s 0 -d 1 -p cbr -e 500 -c 2 -i 93 -a 2 -x {0.0 1.0 93 ------- null}
d -t 0.73 -s 0 -d 1 -p cbr -e 500 -c 2 -i 93 -a 2 -x {0.0 1.0 93 ------- null}
r -t 0.734 -s 0 -d 1 -p cbr -e 1000 -c 2 -i 36 -a 2 -x {0.0 1.0 36 ------- null}
+ -t 0.735 -s 0 -d 1 -p cbr -e 1000 -c 2 -i 94 -a 2 -x {0.0 1.0 94 ------- null}
d -t 0.735 -s 0 -d 1 -p cbr -e 1000 -c 2 -i 94 -a 2 -x {0.0 1.0 94 ------- null}
+ -t 0.735 -s 0 -d 1 -p cbr -e 500 -c 2 -i 95 -a 2 -x {0.0 1.0 95 ------- null}
d -t 0.735 -s 0 -d 1 -p cbr -e 500 -c 2 -i 95 -a 2 -x {0.0 1.0 95 ------- null}
- -t 0.736 -s 0 -d 1 -p cbr -e 500 -c 2 -i 39 -a 2 -x {0.0 1.0 39 ------- null}
h -t 0.736 -s 0 -d 1 -p cbr -e 500 -c 2 -i 39 -a 2 -x {0.0 1.0 -1 ------- null}
r -t 0.738 -s 0 -d 1 -p cbr -e 500 -c 2 -i 37 -a 2 -x {0.0 1.0 37 ------- null}
+ -t 0.74 -s 0 -d 1 -p cbr -e 1000 -c 2 -i 96 -a 2 -x {0.0 1.0 96 ------- null}
+ -t 0.74 -s 0 -d 1 -p cbr -e 500 -c 2 -i 97 -a 2 -x {0.0 1.0 97 ------- null}
d -t 0.74 -s 0 -d 1 -p cbr -e 500 -c 2 -i 97 -a 2 -x {0.0 1.0 97 ------- null}
- -t 0.74 -s 0 -d 1 -p cbr -e 1000 -c 2 -i 40 -a 2 -x {0.0 1.0 40 ------- null}
h -t 0.74 -s 0 -d 1 -p cbr -e 1000 -c 2 -i 40 -a 2 -x {0.0 1.0 -1 ------- null}
+ -t 0.745 -s 0 -d 1 -p cbr -e 1000 -c 2 -i 98 -a 2 -x {0.0 1.0 98 ------- null}
+ -t 0.745 -s 0 -d 1 -p cbr -e 500 -c 2 -i 99 -a 2 -x {0.0 1.0 99 ------- null}
d -t 0.745 -s 0 -d 1 -p cbr -e 500 -c 2 -i 99 -a 2 -x {0.0 1.0 99 ------- null}
r -t 0.746 -s 0 -d 1 -p cbr -e 1000 -c 2 -i 38 -a 2 -x {0.0 1.0 38 ------- null}
- -t 0.748 -s 0 -d 1 -p cbr -e 500 -c 2 -i 41 -a 2 -x {0.0 1.0 41 ------- null}
h -t 0.748 -s 0 -d 1 -p cbr -e 500 -c 2 -i 41 -a 2 -x {0.0 1.0 -1 ------- null}
r -t 0.75 -s 0 -d 1 -p cbr -e 500 -c 2 -i 39 -a 2 -x {0.0 1.0 39 ------- null}
+ -t 0.75 -s 0 -d 1 -p cbr -e 1000 -c 2 -i 100 -a 2 -x {0.0 1.0 100 ------- null}
+ -t 0.75 -s 0 -d 1 -p cbr -e 500 -c 2 -i 101 -a 2 -x {0.0 1.0 101 ------- null}
d -t 0.75 -s 0 -d 1 -p cbr -e 500 -c 2 -i 101 -a 2 -x {0.0 1.0 101 ------- null}
- -t 0.752 -s 0 -d 1 -p cbr -e 1000 -c 2 -i 42 -a 2 -x {0.0 1.0 42 ------- null}
h -t 0.752 -s 0 -d 1 -p cbr -e 1000 -c 2 -i 42 -a 2 -x {0.0 1.0 -1 ------- null}
+ -t 0.755 -s 0 -d 1 -p cbr -e 1000 -c 2 -i 102 -a 2 -x {0.0 1.0 102 ------- null}
+ -t 0.755 -s 0 -d 1 -p cbr -e 500 -c 2 -i 103 -a 2 -x {0.0 1.0 103 ------- null}
d -t 0.755 -s 0 -d 1 -p cbr -e 500 -c 2 -i 103 -a 2 -x {0.0 1.0 103 ------- null}
r -t 0.758 -s 0 -d 1 -p cbr -e 1000 -c 2 -i 40 -a 2 -x {0.0 1.0 40 ------- null}
- -t 0.76 -s 0 -d 1 -p cbr -e 500 -c 2 -i 43 -a 2 -x {0.0 1.0 43 ------- null}
h -t 0.76 -s 0 -d 1 -p cbr -e 500 -c 2 -i 43 -a 2 -x {0.0 1.0 -1 ------- null}
+ -t 0.76 -s 0 -d 1 -p cbr -e 1000 -c 2 -i 104 -a 2 -x {0.0 1.0 104 ------- null}
+ -t 0.76 -s 0 -d 1 -p cbr -e 500 -c 2 -i 105 -a 2 -x {0.0 1.0 105 ------- null}
d -t 0.76 -s 0 -d 1 -p cbr -e 500 -c 2 -i 105 -a 2 -x {0.0 1.0 105 ------- null}
r -t 0.762 -s 0 -d 1 -p cbr -e 500 -c 2 -i 41 -a 2 -x {0.0 1.0 41 ------- null}
- -t 0.764 -s 0 -d 1 -p cbr -e 1000 -c 2 -i 44 -a 2 -x {0.0 1.0 44 ------- null}
h -t 0.764 -s 0 -d 1 -p cbr -e 1000 -c 2 -i 44 -a 2 -x {0.0 1.0 -1 ------- null}
+ -t 0.765 -s 0 -d 1 -p cbr -e 1000 -c 2 -i 106 -a 2 -x {0.0 1.0 106 ------- null}
+ -t 0.765 -s 0 -d 1 -p cbr -e 500 -c 2 -i 107 -a 2 -x {0.0 1.0 107 ------- null}
d -t 0.765 -s 0 -d 1 -p cbr -e 500 -c 2 -i 107 -a 2 -x {0.0 1.0 107 ------- null}
r -t 0.77 -s 0 -d 1 -p cbr -e 1000 -c 2 -i 42 -a 2 -x {0.0 1.0 42 ------- null}
+ -t 0.77 -s 0 -d 1 -p cbr -e 1000 -c 2 -i 108 -a 2 -x {0.0 1.0 108 ------- null}
d -t 0.77 -s 0 -d 1 -p cbr -e 1000 -c 2 -i 108 -a 2 -x {0.0 1.0 108 ------- null}
+ -t 0.77 -s 0 -d 1 -p cbr -e 500 -c 2 -i 109 -a 2 -x {0.0 1.0 109 ------- null}
d -t 0.77 -s 0 -d 1 -p cbr -e 500 -c 2 -i 109 -a 2 -x {0.0 1.0 109 ------- null}
- -t 0.772 -s 0 -d 1 -p cbr -e 500 -c 2 -i 45 -a 2 -x {0.0 1.0 45 ------- null}
h -t 0.772 -s 0 -d 1 -p cbr -e 500 -c 2 -i 45 -a 2 -x {0.0 1.0 -1 ------- null}
r -t 0.774 -s 0 -d 1 -p cbr -e 500 -c 2 -i 43 -a 2 -x {0.0 1.0 43 ------- null}
+ -t 0.775 -s 0 -d 1 -p cbr -e 1000 -c 2 -i 110 -a 2 -x {0.0 1.0 110 ------- null}
+ -t 0.775 -s 0 -d 1 -p cbr -e 500 -c 2 -i 111 -a 2 -x {0.0 1.0 111 ------- null}
d -t 0.775 -s 0 -d 1 -p cbr -e 500 -c 2 -i 111 -a 2 -x {0.0 1.0 111 ------- null}
- -t 0.776 -s 0 -d 1 -p cbr -e 1000 -c 2 -i 46 -a 2 -x {0.0 1.0 46 ------- null}
h -t 0.776 -s 0 -d 1 -p cbr -e 1000 -c 2 -i 46 -a 2 -x {0.0 1.0 -1 ------- null}
+ -t 0.78 -s 0 -d 1 -p cbr -e 1000 -c 2 -i 112 -a 2 -x {0.0 1.0 112 ------- null}
+ -t 0.78 -s 0 -d 1 -p cbr -e 500 -c 2 -i 113 -a 2 -x {0.0 1.0 113 ------- null}
d -t 0.78 -s 0 -d 1 -p cbr -e 500 -c 2 -i 113 -a 2 -x {0.0 1.0 113 ------- null}
r -t 0.782 -s 0 -d 1 -p cbr -e 1000 -c 2 -i 44 -a 2 -x {0.0 1.0 44 ------- null}
- -t 0.784 -s 0 -d 1 -p cbr -e 500 -c 2 -i 47 -a 2 -x {0.0 1.0 47 ------- null}
h -t 0.784 -s 0 -d 1 -p cbr -e 500 -c 2 -i 47 -a 2 -x {0.0 1.0 -1 ------- null}
+ -t 0.785 -s 0 -d 1 -p cbr -e 1000 -c 2 -i 114 -a 2 -x {0.0 1.0 114 ------- null}
+ -t 0.785 -s 0 -d 1 -p cbr -e 500 -c 2 -i 115 -a 2 -x {0.0 1.0 115 ------- null}
d -t 0.785 -s 0 -d 1 -p cbr -e 500 -c 2 -i 115 -a 2 -x {0.0 1.0 115 ------- null}
r -t 0.786 -s 0 -d 1 -p cbr -e 500 -c 2 -i 45 -a 2 -x {0.0 1.0 45 ------- null}
- -t 0.788 -s 0 -d 1 -p cbr -e 1000 -c 2 -i 48 -a 2 -x {0.0 1.0 48 ------- null}
h -t 0.788 -s 0 -d 1 -p cbr -e 1000 -c 2 -i 48 -a 2 -x {0.0 1.0 -1 ------- null}
+ -t 0.79 -s 0 -d 1 -p cbr -e 1000 -c 2 -i 116 -a 2 -x {0.0 1.0 116 ------- null}
+ -t 0.79 -s 0 -d 1 -p cbr -e 500 -c 2 -i 117 -a 2 -x {0.0 1.0 117 ------- null}
d -t 0.79 -s 0 -d 1 -p cbr -e 500 -c 2 -i 117 -a 2 -x {0.0 1.0 117 ------- null}
r -t 0.794 -s 0 -d 1 -p cbr -e 1000 -c 2 -i 46 -a 2 -x {0.0 1.0 46 ------- null}
+ -t 0.795 -s 0 -d 1 -p cbr -e 1000 -c 2 -i 118 -a 2 -x {0.0 1.0 118 ------- null}
d -t 0.795 -s 0 -d 1 -p cbr -e 1000 -c 2 -i 118 -a 2 -x {0.0 1.0 118 ------- null}
+ -t 0.795 -s 0 -d 1 -p cbr -e 500 -c 2 -i 119 -a 2 -x {0.0 1.0 119 ------- null}
d -t 0.795 -s 0 -d 1 -p cbr -e 500 -c 2 -i 119 -a 2 -x {0.0 1.0 119 ------- null}
- -t 0.796 -s 0 -d 1 -p cbr -e 500 -c 2 -i 49 -a 2 -x {0.0 1.0 49 ------- null}
h -t 0.796 -s 0 -d 1 -p cbr -e 500 -c 2 -i 49 -a 2 -x {0.0 1.0 -1 ------- null}
r -t 0.798 -s 0 -d 1 -p cbr -e 500 -c 2 -i 47 -a 2 -x {0.0 1.0 47 ------- null}
+ -t 0.8 -s 0 -d 1 -p cbr -e 1000 -c 2 -i 120 -a 2 -x {0.0 1.0 120 ------- null}
+ -t 0.8 -s 0 -d 1 -p cbr -e 500 -c 2 -i 121 -a 2 -x {0.0 1.0 121 ------- null}
d -t 0.8 -s 0 -d 1 -p cbr -e 500 -c 2 -i 121 -a 2 -x {0.0 1.0 121 ------- null}
- -t 0.8 -s 0 -d 1 -p cbr -e 1000 -c 2 -i 50 -a 2 -x {0.0 1.0 50 ------- null}
h -t 0.8 -s 0 -d 1 -p cbr -e 1000 -c 2 -i 50 -a 2 -x {0.0 1.0 -1 ------- null}
+ -t 0.805 -s 0 -d 1 -p cbr -e 1000 -c 2 -i 122 -a 2 -x {0.0 1.0 122 ------- null}
+ -t 0.805 -s 0 -d 1 -p cbr -e 500 -c 2 -i 123 -a 2 -x {0.0 1.0 123 ------- null}
d -t 0.805 -s 0 -d 1 -p cbr -e 500 -c 2 -i 123 -a 2 -x {0.0 1.0 123 ------- null}
r -t 0.806 -s 0 -d 1 -p cbr -e 1000 -c 2 -i 48 -a 2 -x {0.0 1.0 48 ------- null}
- -t 0.808 -s 0 -d 1 -p cbr -e 500 -c 2 -i 51 -a 2 -x {0.0 1.0 51 ------- null}
h -t 0.808 -s 0 -d 1 -p cbr -e 500 -c 2 -i 51 -a 2 -x {0.0 1.0 -1 ------- null}
r -t 0.81 -s 0 -d 1 -p cbr -e 500 -c 2 -i 49 -a 2 -x {0.0 1.0 49 ------- null}
+ -t 0.81 -s 0 -d 1 -p cbr -e 1000 -c 2 -i 124 -a 2 -x {0.0 1.0 124 ------- null}
+ -t 0.81 -s 0 -d 1 -p cbr -e 500 -c 2 -i 125 -a 2 -x {0.0 1.0 125 ------- null}
d -t 0.81 -s 0 -d 1 -p cbr -e 500 -c 2 -i 125 -a 2 -x {0.0 1.0 125 ------- null}
- -t 0.812 -s 0 -d 1 -p cbr -e 1000 -c 2 -i 52 -a 2 -x {0.0 1.0 52 ------- null}
h -t 0.812 -s 0 -d 1 -p cbr -e 1000 -c 2 -i 52 -a 2 -x {0.0 1.0 -1 ------- null}
+ -t 0.815 -s 0 -d 1 -p cbr -e 1000 -c 2 -i 126 -a 2 -x {0.0 1.0 126 ------- null}
+ -t 0.815 -s 0 -d 1 -p cbr -e 500 -c 2 -i 127 -a 2 -x {0.0 1.0 127 ------- null}
d -t 0.815 -s 0 -d 1 -p cbr -e 500 -c 2 -i 127 -a 2 -x {0.0 1.0 127 ------- null}
r -t 0.818 -s 0 -d 1 -p cbr -e 1000 -c 2 -i 50 -a 2 -x {0.0 1.0 50 ------- null}
- -t 0.82 -s 0 -d 1 -p cbr -e 500 -c 2 -i 53 -a 2 -x {0.0 1.0 53 ------- null}
h -t 0.82 -s 0 -d 1 -p cbr -e 500 -c 2 -i 53 -a 2 -x {0.0 1.0 -1 ------- null}
+ -t 0.82 -s 0 -d 1 -p cbr -e 1000 -c 2 -i 128 -a 2 -x {0.0 1.0 128 ------- null}
+ -t 0.82 -s 0 -d 1 -p cbr -e 500 -c 2 -i 129 -a 2 -x {0.0 1.0 129 ------- null}
d -t 0.82 -s 0 -d 1 -p cbr -e 500 -c 2 -i 129 -a 2 -x {0.0 1.0 129 ------- null}
r -t 0.822 -s 0 -d 1 -p cbr -e 500 -c 2 -i 51 -a 2 -x {0.0 1.0 51 ------- null}
- -t 0.824 -s 0 -d 1 -p cbr -e 1000 -c 2 -i 54 -a 2 -x {0.0 1.0 54 ------- null}
h -t 0.824 -s 0 -d 1 -p cbr -e 1000 -c 2 -i 54 -a 2 -x {0.0 1.0 -1 ------- null}
+ -t 0.825 -s 0 -d 1 -p cbr -e 1000 -c 2 -i 130 -a 2 -x {0.0 1.0 130 ------- null}
+ -t 0.825 -s 0 -d 1 -p cbr -e 500 -c 2 -i 131 -a 2 -x {0.0 1.0 131 ------- null}
d -t 0.825 -s 0 -d 1 -p cbr -e 500 -c 2 -i 131 -a 2 -x {0.0 1.0 131 ------- null}
r -t 0.83 -s 0 -d 1 -p cbr -e 1000 -c 2 -i 52 -a 2 -x {0.0 1.0 52 ------- null}
+ -t 0.83 -s 0 -d 1 -p cbr -e 1000 -c 2 -i 132 -a 2 -x {0.0 1.0 132 ------- null}
d -t 0.83 -s 0 -d 1 -p cbr -e 1000 -c 2 -i 132 -a 2 -x {0.0 1.0 132 ------- null}
+ -t 0.83 -s 0 -d 1 -p cbr -e 500 -c 2 -i 133 -a 2 -x {0.0 1.0 133 ------- null}
d -t 0.83 -s 0 -d 1 -p cbr -e 500 -c 2 -i 133 -a 2 -x {0.0 1.0 133 ------- null}
- -t 0.832 -s 0 -d 1 -p cbr -e 500 -c 2 -i 55 -a 2 -x {0.0 1.0 55 ------- null}
h -t 0.832 -s 0 -d 1 -p cbr -e 500 -c 2 -i 55 -a 2 -x {0.0 1.0 -1 ------- null}
r -t 0.834 -s 0 -d 1 -p cbr -e 500 -c 2 -i 53 -a 2 -x {0.0 1.0 53 ------- null}
+ -t 0.835 -s 0 -d 1 -p cbr -e 1000 -c 2 -i 134 -a 2 -x {0.0 1.0 134 ------- null}
+ -t 0.835 -s 0 -d 1 -p cbr -e 500 -c 2 -i 135 -a 2 -x {0.0 1.0 135 ------- null}
d -t 0.835 -s 0 -d 1 -p cbr -e 500 -c 2 -i 135 -a 2 -x {0.0 1.0 135 ------- null}
- -t 0.836 -s 0 -d 1 -p cbr -e 1000 -c 2 -i 56 -a 2 -x {0.0 1.0 56 ------- null}
h -t 0.836 -s 0 -d 1 -p cbr -e 1000 -c 2 -i 56 -a 2 -x {0.0 1.0 -1 ------- null}
+ -t 0.84 -s 0 -d 1 -p cbr -e 1000 -c 2 -i 136 -a 2 -x {0.0 1.0 136 ------- null}
+ -t 0.84 -s 0 -d 1 -p cbr -e 500 -c 2 -i 137 -a 2 -x {0.0 1.0 137 ------- null}
d -t 0.84 -s 0 -d 1 -p cbr -e 500 -c 2 -i 137 -a 2 -x {0.0 1.0 137 ------- null}
r -t 0.842 -s 0 -d 1 -p cbr -e 1000 -c 2 -i 54 -a 2 -x {0.0 1.0 54 ------- null}
- -t 0.844 -s 0 -d 1 -p cbr -e 500 -c 2 -i 57 -a 2 -x {0.0 1.0 57 ------- null}
h -t 0.844 -s 0 -d 1 -p cbr -e 500 -c 2 -i 57 -a 2 -x {0.0 1.0 -1 ------- null}
+ -t 0.845 -s 0 -d 1 -p cbr -e 1000 -c 2 -i 138 -a 2 -x {0.0 1.0 138 ------- null}
+ -t 0.845 -s 0 -d 1 -p cbr -e 500 -c 2 -i 139 -a 2 -x {0.0 1.0 139 ------- null}
d -t 0.845 -s 0 -d 1 -p cbr -e 500 -c 2 -i 139 -a 2 -x {0.0 1.0 139 ------- null}
r -t 0.846 -s 0 -d 1 -p cbr -e 500 -c 2 -i 55 -a 2 -x {0.0 1.0 55 ------- null}
- -t 0.848 -s 0 -d 1 -p cbr -e 1000 -c 2 -i 58 -a 2 -x {0.0 1.0 58 ------- null}
h -t 0.848 -s 0 -d 1 -p cbr -e 1000 -c 2 -i 58 -a 2 -x {0.0 1.0 -1 ------- null}
+ -t 0.85 -s 0 -d 1 -p cbr -e 1000 -c 2 -i 140 -a 2 -x {0.0 1.0 140 ------- null}
+ -t 0.85 -s 0 -d 1 -p cbr -e 500 -c 2 -i 141 -a 2 -x {0.0 1.0 141 ------- null}
d -t 0.85 -s 0 -d 1 -p cbr -e 500 -c 2 -i 141 -a 2 -x {0.0 1.0 141 ------- null}
r -t 0.854 -s 0 -d 1 -p cbr -e 1000 -c 2 -i 56 -a 2 -x {0.0 1.0 56 ------- null}
+ -t 0.855 -s 0 -d 1 -p cbr -e 1000 -c 2 -i 142 -a 2 -x {0.0 1.0 142 ------- null}
d -t 0.855 -s 0 -d 1 -p cbr -e 1000 -c 2 -i 142 -a 2 -x {0.0 1.0 142 ------- null}
+ -t 0.855 -s 0 -d 1 -p cbr -e 500 -c 2 -i 143 -a 2 -x {0.0 1.0 143 ------- null}
d -t 0.855 -s 0 -d 1 -p cbr -e 500 -c 2 -i 143 -a 2 -x {0.0 1.0 143 ------- null}
- -t 0.856 -s 0 -d 1 -p cbr -e 500 -c 2 -i 59 -a 2 -x {0.0 1.0 59 ------- null}
h -t 0.856 -s 0 -d 1 -p cbr -e 500 -c 2 -i 59 -a 2 -x {0.0 1.0 -1 ------- null}
r -t 0.858 -s 0 -d 1 -p cbr -e 500 -c 2 -i 57 -a 2 -x {0.0 1.0 57 ------- null}
+ -t 0.86 -s 0 -d 1 -p cbr -e 1000 -c 2 -i 144 -a 2 -x {0.0 1.0 144 ------- null}
+ -t 0.86 -s 0 -d 1 -p cbr -e 500 -c 2 -i 145 -a 2 -x {0.0 1.0 145 ------- null}
d -t 0.86 -s 0 -d 1 -p cbr -e 500 -c 2 -i 145 -a 2 -x {0.0 1.0 145 ------- null}
- -t 0.86 -s 0 -d 1 -p cbr -e 1000 -c 2 -i 60 -a 2 -x {0.0 1.0 60 ------- null}
h -t 0.86 -s 0 -d 1 -p cbr -e 1000 -c 2 -i 60 -a 2 -x {0.0 1.0 -1 ------- null}
+ -t 0.865 -s 0 -d 1 -p cbr -e 1000 -c 2 -i 146 -a 2 -x {0.0 1.0 146 ------- null}
+ -t 0.865 -s 0 -d 1 -p cbr -e 500 -c 2 -i 147 -a 2 -x {0.0 1.0 147 ------- null}
d -t 0.865 -s 0 -d 1 -p cbr -e 500 -c 2 -i 147 -a 2 -x {0.0 1.0 147 ------- null}
r -t 0.866 -s 0 -d 1 -p cbr -e 1000 -c 2 -i 58 -a 2 -x {0.0 1.0 58 ------- null}
- -t 0.868 -s 0 -d 1 -p cbr -e 500 -c 2 -i 61 -a 2 -x {0.0 1.0 61 ------- null}
h -t 0.868 -s 0 -d 1 -p cbr -e 500 -c 2 -i 61 -a 2 -x {0.0 1.0 -1 ------- null}
r -t 0.87 -s 0 -d 1 -p cbr -e 500 -c 2 -i 59 -a 2 -x {0.0 1.0 59 ------- null}