+ 0.5 0 1 poisson 1500 ------- 1 0.0 1.0 0 0
- 0.5 0 1 poisson 1500 ------- 1 0.0 1.0 0 0
r 0.522 0 1 poisson 1500 ------- 1 0.0 1.0 0 0
+ 0.600899 0 1 poisson 1500 ------- 1 0.0 1.0 1 1
- 0.600899 0 1 poisson 1500 ------- 1 0.0 1.0 1 1
+ 0.608316 0 1 poisson 1500 ------- 1 0.0 1.0 2 2
- 0.612899 0 1 poisson 1500 ------- 1 0.0 1.0 2 2
r 0.622899 0 1 poisson 1500 ------- 1 0.0 1.0 1 1
r 0.634899 0 1 poisson 1500 ------- 1 0.0 1.0 2 2
+ 0.662053 0 1 poisson 1500 ------- 1 0.0 1.0 3 3
- 0.662053 0 1 poisson 1500 ------- 1 0.0 1.0 3 3
r 0.684053 0 1 poisson 1500 ------- 1 0.0 1.0 3 3
+ 0.692735 0 1 poisson 1500 ------- 1 0.0 1.0 4 4
- 0.692735 0 1 poisson 1500 ------- 1 0.0 1.0 4 4
+ 0.703072 0 1 poisson 1500 ------- 1 0.0 1.0 5 5
- 0.704735 0 1 poisson 1500 ------- 1 0.0 1.0 5 5
+ 0.705904 0 1 poisson 1500 ------- 1 0.0 1.0 6 6
r 0.714735 0 1 poisson 1500 ------- 1 0.0 1.0 4 4
- 0.716735 0 1 poisson 1500 ------- 1 0.0 1.0 6 6
+ 0.720578 0 1 poisson 1500 ------- 1 0.0 1.0 7 7
+ 0.723139 0 1 poisson 1500 ------- 1 0.0 1.0 8 8
r 0.726735 0 1 poisson 1500 ------- 1 0.0 1.0 5 5
- 0.728735 0 1 poisson 1500 ------- 1 0.0 1.0 7 7
r 0.738735 0 1 poisson 1500 ------- 1 0.0 1.0 6 6
- 0.740735 0 1 poisson 1500 ------- 1 0.0 1.0 8 8
+ 0.741453 0 1 poisson 1500 ------- 1 0.0 1.0 9 9
+ 0.747113 0 1 poisson 1500 ------- 1 0.0 1.0 10 10
r 0.750735 0 1 poisson 1500 ------- 1 0.0 1.0 7 7
- 0.752735 0 1 poisson 1500 ------- 1 0.0 1.0 9 9
+ 0.761944 0 1 poisson 1500 ------- 1 0.0 1.0 11 11
r 0.762735 0 1 poisson 1500 ------- 1 0.0 1.0 8 8
+ 0.764202 0 1 poisson 1500 ------- 1 0.0 1.0 12 12
- 0.764735 0 1 poisson 1500 ------- 1 0.0 1.0 10 10
r 0.774735 0 1 poisson 1500 ------- 1 0.0 1.0 9 9
- 0.776735 0 1 poisson 1500 ------- 1 0.0 1.0 11 11
r 0.786735 0 1 poisson 1500 ------- 1 0.0 1.0 10 10
+ 0.787027 0 1 poisson 1500 ------- 1 0.0 1.0 13 13
- 0.788735 0 1 poisson 1500 ------- 1 0.0 1.0 12 12
r 0.798735 0 1 poisson 1500 ------- 1 0.0 1.0 11 11
- 0.800735 0 1 poisson 1500 ------- 1 0.0 1.0 13 13
r 0.810735 0 1 poisson 1500 ------- 1 0.0 1.0 12 12
r 0.822735 0 1 poisson 1500 ------- 1 0.0 1.0 13 13
+ 0.826834 0 1 poisson 1500 ------- 1 0.0 1.0 14 14
- 0.826834 0 1 poisson 1500 ------- 1 0.0 1.0 14 14
+ 0.83247 0 1 poisson 1500 ------- 1 0.0 1.0 15 15
- 0.838834 0 1 poisson 1500 ------- 1 0.0 1.0 15 15
r 0.848834 0 1 poisson 1500 ------- 1 0.0 1.0 14 14
+ 0.859921 0 1 poisson 1500 ------- 1 0.0 1.0 16 16
- 0.859921 0 1 poisson 1500 ------- 1 0.0 1.0 16 16
r 0.860834 0 1 poisson 1500 ------- 1 0.0 1.0 15 15
+ 0.86183 0 1 poisson 1500 ------- 1 0.0 1.0 17 17
- 0.871921 0 1 poisson 1500 ------- 1 0.0 1.0 17 17
+ 0.872679 0 1 poisson 1500 ------- 1 0.0 1.0 18 18
r 0.881921 0 1 poisson 1500 ------- 1 0.0 1.0 16 16
- 0.883921 0 1 poisson 1500 ------- 1 0.0 1.0 18 18
r 0.893921 0 1 poisson 1500 ------- 1 0.0 1.0 17 17
+ 0.894709 0 1 poisson 1500 ------- 1 0.0 1.0 19 19
- 0.895921 0 1 poisson 1500 ------- 1 0.0 1.0 19 19
r 0.905921 0 1 poisson 1500 ------- 1 0.0 1.0 18 18
r 0.917921 0 1 poisson 1500 ------- 1 0.0 1.0 19 19
+ 0.924558 0 1 poisson 1500 ------- 1 0.0 1.0 20 20
- 0.924558 0 1 poisson 1500 ------- 1 0.0 1.0 20 20
+ 0.927266 0 1 poisson 1500 ------- 1 0.0 1.0 21 21
- 0.936558 0 1 poisson 1500 ------- 1 0.0 1.0 21 21
+ 0.940572 0 1 poisson 1500 ------- 1 0.0 1.0 22 22
r 0.946558 0 1 poisson 1500 ------- 1 0.0 1.0 20 20
- 0.948558 0 1 poisson 1500 ------- 1 0.0 1.0 22 22
+ 0.957681 0 1 poisson 1500 ------- 1 0.0 1.0 23 23
r 0.958558 0 1 poisson 1500 ------- 1 0.0 1.0 21 21
- 0.960558 0 1 poisson 1500 ------- 1 0.0 1.0 23 23
+ 0.968984 0 1 poisson 1500 ------- 1 0.0 1.0 24 24
r 0.970558 0 1 poisson 1500 ------- 1 0.0 1.0 22 22
- 0.972558 0 1 poisson 1500 ------- 1 0.0 1.0 24 24
+ 0.977277 0 1 poisson 1500 ------- 1 0.0 1.0 25 25
r 0.982558 0 1 poisson 1500 ------- 1 0.0 1.0 23 23
- 0.984558 0 1 poisson 1500 ------- 1 0.0 1.0 25 25
+ 0.986919 0 1 poisson 1500 ------- 1 0.0 1.0 26 26
+ 0.991564 0 1 poisson 1500 ------- 1 0.0 1.0 27 27
+ 0.993439 0 1 poisson 1500 ------- 1 0.0 1.0 28 28
r 0.994558 0 1 poisson 1500 ------- 1 0.0 1.0 24 24
+ 0.995644 0 1 poisson 1500 ------- 1 0.0 1.0 29 29
- 0.996558 0 1 poisson 1500 ------- 1 0.0 1.0 26 26
r 1.006558 0 1 poisson 1500 ------- 1 0.0 1.0 25 25
- 1.008558 0 1 poisson 1500 ------- 1 0.0 1.0 27 27
+ 1.014934 0 1 poisson 1500 ------- 1 0.0 1.0 30 30
r 1.018558 0 1 poisson 1500 ------- 1 0.0 1.0 26 26
- 1.020558 0 1 poisson 1500 ------- 1 0.0 1.0 28 28
r 1.030558 0 1 poisson 1500 ------- 1 0.0 1.0 27 27
- 1.032558 0 1 poisson 1500 ------- 1 0.0 1.0 29 29
+ 1.032896 0 1 poisson 1500 ------- 1 0.0 1.0 31 31
+ 1.034932 0 1 poisson 1500 ------- 1 0.0 1.0 32 32
+ 1.039853 0 1 poisson 1500 ------- 1 0.0 1.0 33 33
r 1.042558 0 1 poisson 1500 ------- 1 0.0 1.0 28 28
+ 1.043283 0 1 poisson 1500 ------- 1 0.0 1.0 34 34
+ 1.044544 0 1 poisson 1500 ------- 1 0.0 1.0 35 35
- 1.044558 0 1 poisson 1500 ------- 1 0.0 1.0 30 30
r 1.054558 0 1 poisson 1500 ------- 1 0.0 1.0 29 29
+ 1.055946 0 1 poisson 1500 ------- 1 0.0 1.0 36 36
- 1.056558 0 1 poisson 1500 ------- 1 0.0 1.0 31 31
r 1.066558 0 1 poisson 1500 ------- 1 0.0 1.0 30 30
- 1.068558 0 1 poisson 1500 ------- 1 0.0 1.0 32 32
r 1.078558 0 1 poisson 1500 ------- 1 0.0 1.0 31 31
- 1.080558 0 1 poisson 1500 ------- 1 0.0 1.0 33 33
+ 1.083919 0 1 poisson 1500 ------- 1 0.0 1.0 37 37
r 1.090558 0 1 poisson 1500 ------- 1 0.0 1.0 32 32
- 1.092558 0 1 poisson 1500 ------- 1 0.0 1.0 34 34
+ 1.095361 0 1 poisson 1500 ------- 1 0.0 1.0 38 38
r 1.102558 0 1 poisson 1500 ------- 1 0.0 1.0 33 33
- 1.104558 0 1 poisson 1500 ------- 1 0.0 1.0 35 35
r 1.114558 0 1 poisson 1500 ------- 1 0.0 1.0 34 34
+ 1.116515 0 1 poisson 1500 ------- 1 0.0 1.0 39 39
- 1.116558 0 1 poisson 1500 ------- 1 0.0 1.0 36 36
+ 1.118024 0 1 poisson 1500 ------- 1 0.0 1.0 40 40
+ 1.118721 0 1 poisson 1500 ------- 1 0.0 1.0 41 41
+ 1.120174 0 1 poisson 1500 ------- 1 0.0 1.0 42 42
r 1.126558 0 1 poisson 1500 ------- 1 0.0 1.0 35 35
- 1.128558 0 1 poisson 1500 ------- 1 0.0 1.0 37 37
r 1.138558 0 1 poisson 1500 ------- 1 0.0 1.0 36 36
- 1.140558 0 1 poisson 1500 ------- 1 0.0 1.0 38 38
+ 1.147824 0 1 poisson 1500 ------- 1 0.0 1.0 43 43
r 1.150558 0 1 poisson 1500 ------- 1 0.0 1.0 37 37
- 1.152558 0 1 poisson 1500 ------- 1 0.0 1.0 39 39
r 1.162558 0 1 poisson 1500 ------- 1 0.0 1.0 38 38
- 1.164558 0 1 poisson 1500 ------- 1 0.0 1.0 40 40
r 1.174558 0 1 poisson 1500 ------- 1 0.0 1.0 39 39
- 1.176558 0 1 poisson 1500 ------- 1 0.0 1.0 41 41
+ 1.183703 0 1 poisson 1500 ------- 1 0.0 1.0 44 44
r 1.186558 0 1 poisson 1500 ------- 1 0.0 1.0 40 40
- 1.188558 0 1 poisson 1500 ------- 1 0.0 1.0 42 42
r 1.198558 0 1 poisson 1500 ------- 1 0.0 1.0 41 41
- 1.200558 0 1 poisson 1500 ------- 1 0.0 1.0 43 43
r 1.210558 0 1 poisson 1500 ------- 1 0.0 1.0 42 42
- 1.212558 0 1 poisson 1500 ------- 1 0.0 1.0 44 44
r 1.222558 0 1 poisson 1500 ------- 1 0.0 1.0 43 43
r 1.234558 0 1 poisson 1500 ------- 1 0.0 1.0 44 44
+ 1.240892 0 1 poisson 1500 ------- 1 0.0 1.0 45 45
- 1.240892 0 1 poisson 1500 ------- 1 0.0 1.0 45 45
+ 1.247449 0 1 poisson 1500 ------- 1 0.0 1.0 46 46
- 1.252892 0 1 poisson 1500 ------- 1 0.0 1.0 46 46
+ 1.261239 0 1 poisson 1500 ------- 1 0.0 1.0 47 47
r 1.262892 0 1 poisson 1500 ------- 1 0.0 1.0 45 45
- 1.264892 0 1 poisson 1500 ------- 1 0.0 1.0 47 47
r 1.274892 0 1 poisson 1500 ------- 1 0.0 1.0 46 46
r 1.286892 0 1 poisson 1500 ------- 1 0.0 1.0 47 47
+ 1.287698 0 1 poisson 1500 ------- 1 0.0 1.0 48 48
- 1.287698 0 1 poisson 1500 ------- 1 0.0 1.0 48 48
+ 1.292783 0 1 poisson 1500 ------- 1 0.0 1.0 49 49
- 1.299698 0 1 poisson 1500 ------- 1 0.0 1.0 49 49
r 1.309698 0 1 poisson 1500 ------- 1 0.0 1.0 48 48
+ 1.309946 0 1 poisson 1500 ------- 1 0.0 1.0 50 50
- 1.311698 0 1 poisson 1500 ------- 1 0.0 1.0 50 50
+ 1.314475 0 1 poisson 1500 ------- 1 0.0 1.0 51 51
r 1.321698 0 1 poisson 1500 ------- 1 0.0 1.0 49 49
+ 1.322146 0 1 poisson 1500 ------- 1 0.0 1.0 52 52
- 1.323698 0 1 poisson 1500 ------- 1 0.0 1.0 51 51
+ 1.323809 0 1 poisson 1500 ------- 1 0.0 1.0 53 53
r 1.333698 0 1 poisson 1500 ------- 1 0.0 1.0 50 50
- 1.335698 0 1 poisson 1500 ------- 1 0.0 1.0 52 52
+ 1.340736 0 1 poisson 1500 ------- 1 0.0 1.0 54 54
r 1.345698 0 1 poisson 1500 ------- 1 0.0 1.0 51 51
- 1.347698 0 1 poisson 1500 ------- 1 0.0 1.0 53 53
+ 1.348177 0 1 poisson 1500 ------- 1 0.0 1.0 55 55
r 1.357698 0 1 poisson 1500 ------- 1 0.0 1.0 52 52
+ 1.358965 0 1 poisson 1500 ------- 1 0.0 1.0 56 56
- 1.359698 0 1 poisson 1500 ------- 1 0.0 1.0 54 54
r 1.369698 0 1 poisson 1500 ------- 1 0.0 1.0 53 53
- 1.371698 0 1 poisson 1500 ------- 1 0.0 1.0 55 55
r 1.381698 0 1 poisson 1500 ------- 1 0.0 1.0 54 54
- 1.383698 0 1 poisson 1500 ------- 1 0.0 1.0 56 56
r 1.393698 0 1 poisson 1500 ------- 1 0.0 1.0 55 55
+ 1.404331 0 1 poisson 1500 ------- 1 0.0 1.0 57 57
- 1.404331 0 1 poisson 1500 ------- 1 0.0 1.0 57 57
r 1.405698 0 1 poisson 1500 ------- 1 0.0 1.0 56 56
+ 1.418439 0 1 poisson 1500 ------- 1 0.0 1.0 58 58
- 1.418439 0 1 poisson 1500 ------- 1 0.0 1.0 58 58
r 1.426331 0 1 poisson 1500 ------- 1 0.0 1.0 57 57
+ 1.439671 0 1 poisson 1500 ------- 1 0.0 1.0 59 59
- 1.439671 0 1 poisson 1500 ------- 1 0.0 1.0 59 59
r 1.440439 0 1 poisson 1500 ------- 1 0.0 1.0 58 58
+ 1.442728 0 1 poisson 1500 ------- 1 0.0 1.0 60 60
+ 1.443419 0 1 poisson 1500 ------- 1 0.0 1.0 61 61
+ 1.446676 0 1 poisson 1500 ------- 1 0.0 1.0 62 62
- 1.451671 0 1 poisson 1500 ------- 1 0.0 1.0 60 60
r 1.461671 0 1 poisson 1500 ------- 1 0.0 1.0 59 59
- 1.463671 0 1 poisson 1500 ------- 1 0.0 1.0 61 61
+ 1.466588 0 1 poisson 1500 ------- 1 0.0 1.0 63 63
+ 1.471185 0 1 poisson 1500 ------- 1 0.0 1.0 64 64
r 1.473671 0 1 poisson 1500 ------- 1 0.0 1.0 60 60
- 1.475671 0 1 poisson 1500 ------- 1 0.0 1.0 62 62
r 1.485671 0 1 poisson 1500 ------- 1 0.0 1.0 61 61
- 1.487671 0 1 poisson 1500 ------- 1 0.0 1.0 63 63
+ 1.492935 0 1 poisson 1500 ------- 1 0.0 1.0 65 65
+ 1.493242 0 1 poisson 1500 ------- 1 0.0 1.0 66 66
r 1.497671 0 1 poisson 1500 ------- 1 0.0 1.0 62 62
- 1.499671 0 1 poisson 1500 ------- 1 0.0 1.0 64 64
r 1.509671 0 1 poisson 1500 ------- 1 0.0 1.0 63 63
- 1.511671 0 1 poisson 1500 ------- 1 0.0 1.0 65 65
r 1.521671 0 1 poisson 1500 ------- 1 0.0 1.0 64 64
+ 1.523469 0 1 poisson 1500 ------- 1 0.0 1.0 67 67
- 1.523671 0 1 poisson 1500 ------- 1 0.0 1.0 66 66
+ 1.532435 0 1 poisson 1500 ------- 1 0.0 1.0 68 68
r 1.533671 0 1 poisson 1500 ------- 1 0.0 1.0 65 65
- 1.535671 0 1 poisson 1500 ------- 1 0.0 1.0 67 67
r 1.545671 0 1 poisson 1500 ------- 1 0.0 1.0 66 66
- 1.547671 0 1 poisson 1500 ------- 1 0.0 1.0 68 68
r 1.557671 0 1 poisson 1500 ------- 1 0.0 1.0 67 67
r 1.569671 0 1 poisson 1500 ------- 1 0.0 1.0 68 68
+ 1.570242 0 1 poisson 1500 ------- 1 0.0 1.0 69 69
- 1.570242 0 1 poisson 1500 ------- 1 0.0 1.0 69 69
+ 1.572073 0 1 poisson 1500 ------- 1 0.0 1.0 70 70
+ 1.580023 0 1 poisson 1500 ------- 1 0.0 1.0 71 71
- 1.582242 0 1 poisson 1500 ------- 1 0.0 1.0 70 70
+ 1.583911 0 1 poisson 1500 ------- 1 0.0 1.0 72 72
r 1.592242 0 1 poisson 1500 ------- 1 0.0 1.0 69 69
- 1.594242 0 1 poisson 1500 ------- 1 0.0 1.0 71 71
+ 1.594832 0 1 poisson 1500 ------- 1 0.0 1.0 73 73
r 1.604242 0 1 poisson 1500 ------- 1 0.0 1.0 70 70
- 1.606242 0 1 poisson 1500 ------- 1 0.0 1.0 72 72
r 1.616242 0 1 poisson 1500 ------- 1 0.0 1.0 71 71
- 1.618242 0 1 poisson 1500 ------- 1 0.0 1.0 73 73
+ 1.625503 0 1 poisson 1500 ------- 1 0.0 1.0 74 74
+ 1.628097 0 1 poisson 1500 ------- 1 0.0 1.0 75 75
r 1.628242 0 1 poisson 1500 ------- 1 0.0 1.0 72 72
+ 1.629388 0 1 poisson 1500 ------- 1 0.0 1.0 76 76
- 1.630242 0 1 poisson 1500 ------- 1 0.0 1.0 74 74
+ 1.633397 0 1 poisson 1500 ------- 1 0.0 1.0 77 77
+ 1.635089 0 1 poisson 1500 ------- 1 0.0 1.0 78 78
r 1.640242 0 1 poisson 1500 ------- 1 0.0 1.0 73 73
+ 1.641837 0 1 poisson 1500 ------- 1 0.0 1.0 79 79
- 1.642242 0 1 poisson 1500 ------- 1 0.0 1.0 75 75
+ 1.645712 0 1 poisson 1500 ------- 1 0.0 1.0 80 80
+ 1.648499 0 1 poisson 1500 ------- 1 0.0 1.0 81 81
r 1.652242 0 1 poisson 1500 ------- 1 0.0 1.0 74 74
- 1.654242 0 1 poisson 1500 ------- 1 0.0 1.0 76 76
+ 1.661543 0 1 poisson 1500 ------- 1 0.0 1.0 82 82
r 1.664242 0 1 poisson 1500 ------- 1 0.0 1.0 75 75
- 1.666242 0 1 poisson 1500 ------- 1 0.0 1.0 77 77
+ 1.668903 0 1 poisson 1500 ------- 1 0.0 1.0 83 83
+ 1.671478 0 1 poisson 1500 ------- 1 0.0 1.0 84 84
+ 1.674555 0 1 poisson 1500 ------- 1 0.0 1.0 85 85
r 1.676242 0 1 poisson 1500 ------- 1 0.0 1.0 76 76
- 1.678242 0 1 poisson 1500 ------- 1 0.0 1.0 78 78
+ 1.679736 0 1 poisson 1500 ------- 1 0.0 1.0 86 86
r 1.688242 0 1 poisson 1500 ------- 1 0.0 1.0 77 77
- 1.690242 0 1 poisson 1500 ------- 1 0.0 1.0 79 79
r 1.700242 0 1 poisson 1500 ------- 1 0.0 1.0 78 78
- 1.702242 0 1 poisson 1500 ------- 1 0.0 1.0 80 80
+ 1.703701 0 1 poisson 1500 ------- 1 0.0 1.0 87 87
r 1.712242 0 1 poisson 1500 ------- 1 0.0 1.0 79 79
- 1.714242 0 1 poisson 1500 ------- 1 0.0 1.0 81 81
+ 1.715075 0 1 poisson 1500 ------- 1 0.0 1.0 88 88
+ 1.722716 0 1 poisson 1500 ------- 1 0.0 1.0 89 89
r 1.724242 0 1 poisson 1500 ------- 1 0.0 1.0 80 80
- 1.726242 0 1 poisson 1500 ------- 1 0.0 1.0 82 82
+ 1.735153 0 1 poisson 1500 ------- 1 0.0 1.0 90 90
r 1.736242 0 1 poisson 1500 ------- 1 0.0 1.0 81 81
- 1.738242 0 1 poisson 1500 ------- 1 0.0 1.0 83 83
r 1.748242 0 1 poisson 1500 ------- 1 0.0 1.0 82 82
- 1.750242 0 1 poisson 1500 ------- 1 0.0 1.0 84 84
r 1.760242 0 1 poisson 1500 ------- 1 0.0 1.0 83 83
- 1.762242 0 1 poisson 1500 ------- 1 0.0 1.0 85 85
r 1.772242 0 1 poisson 1500 ------- 1 0.0 1.0 84 84
- 1.774242 0 1 poisson 1500 ------- 1 0.0 1.0 86 86
r 1.784242 0 1 poisson 1500 ------- 1 0.0 1.0 85 85
- 1.786242 0 1 poisson 1500 ------- 1 0.0 1.0 87 87
r 1.796242 0 1 poisson 1500 ------- 1 0.0 1.0 86 86
- 1.798242 0 1 poisson 1500 ------- 1 0.0 1.0 88 88
r 1.808242 0 1 poisson 1500 ------- 1 0.0 1.0 87 87
- 1.810242 0 1 poisson 1500 ------- 1 0.0 1.0 89 89
r 1.820242 0 1 poisson 1500 ------- 1 0.0 1.0 88 88
- 1.822242 0 1 poisson 1500 ------- 1 0.0 1.0 90 90
r 1.832242 0 1 poisson 1500 ------- 1 0.0 1.0 89 89
r 1.844242 0 1 poisson 1500 ------- 1 0.0 1.0 90 90
+ 1.844459 0 1 poisson 1500 ------- 1 0.0 1.0 91 91
- 1.844459 0 1 poisson 1500 ------- 1 0.0 1.0 91 91
r 1.866459 0 1 poisson 1500 ------- 1 0.0 1.0 91 91
+ 1.875832 0 1 poisson 1500 ------- 1 0.0 1.0 92 92
- 1.875832 0 1 poisson 1500 ------- 1 0.0 1.0 92 92
+ 1.889752 0 1 poisson 1500 ------- 1 0.0 1.0 93 93
- 1.889752 0 1 poisson 1500 ------- 1 0.0 1.0 93 93
+ 1.894335 0 1 poisson 1500 ------- 1 0.0 1.0 94 94
+ 1.8955 0 1 poisson 1500 ------- 1 0.0 1.0 95 95
r 1.897832 0 1 poisson 1500 ------- 1 0.0 1.0 92 92
- 1.901752 0 1 poisson 1500 ------- 1 0.0 1.0 94 94
r 1.911752 0 1 poisson 1500 ------- 1 0.0 1.0 93 93
- 1.913752 0 1 poisson 1500 ------- 1 0.0 1.0 95 95
r 1.923752 0 1 poisson 1500 ------- 1 0.0 1.0 94 94
r 1.935752 0 1 poisson 1500 ------- 1 0.0 1.0 95 95
+ 1.938669 0 1 poisson 1500 ------- 1 0.0 1.0 96 96
- 1.938669 0 1 poisson 1500 ------- 1 0.0 1.0 96 96
+ 1.951391 0 1 poisson 1500 ------- 1 0.0 1.0 97 97
- 1.951391 0 1 poisson 1500 ------- 1 0.0 1.0 97 97
r 1.960669 0 1 poisson 1500 ------- 1 0.0 1.0 96 96
+ 1.966391 0 1 poisson 1500 ------- 1 0.0 1.0 98 98
- 1.966391 0 1 poisson 1500 ------- 1 0.0 1.0 98 98
r 1.973391 0 1 poisson 1500 ------- 1 0.0 1.0 97 97
r 1.988391 0 1 poisson 1500 ------- 1 0.0 1.0 98 98
+ 2.038375 0 1 poisson 1500 ------- 1 0.0 1.0 99 99
- 2.038375 0 1 poisson 1500 ------- 1 0.0 1.0 99 99
+ 2.052699 0 1 poisson 1500 ------- 1 0.0 1.0 100 100
- 2.052699 0 1 poisson 1500 ------- 1 0.0 1.0 100 100
+ 2.054296 0 1 poisson 1500 ------- 1 0.0 1.0 101 101
+ 2.055911 0 1 poisson 1500 ------- 1 0.0 1.0 102 102
+ 2.058638 0 1 poisson 1500 ------- 1 0.0 1.0 103 103
r 2.060375 0 1 poisson 1500 ------- 1 0.0 1.0 99 99
- 2.064699 0 1 poisson 1500 ------- 1 0.0 1.0 101 101
r 2.074699 0 1 poisson 1500 ------- 1 0.0 1.0 100 100
- 2.076699 0 1 poisson 1500 ------- 1 0.0 1.0 102 102
+ 2.08093 0 1 poisson 1500 ------- 1 0.0 1.0 104 104
r 2.086699 0 1 poisson 1500 ------- 1 0.0 1.0 101 101
- 2.088699 0 1 poisson 1500 ------- 1 0.0 1.0 103 103
r 2.098699 0 1 poisson 1500 ------- 1 0.0 1.0 102 102
- 2.100699 0 1 poisson 1500 ------- 1 0.0 1.0 104 104
r 2.110699 0 1 poisson 1500 ------- 1 0.0 1.0 103 103
r 2.122699 0 1 poisson 1500 ------- 1 0.0 1.0 104 104
+ 2.124431 0 1 poisson 1500 ------- 1 0.0 1.0 105 105
- 2.124431 0 1 poisson 1500 ------- 1 0.0 1.0 105 105
+ 2.127977 0 1 poisson 1500 ------- 1 0.0 1.0 106 106
+ 2.134111 0 1 poisson 1500 ------- 1 0.0 1.0 107 107
- 2.136431 0 1 poisson 1500 ------- 1 0.0 1.0 106 106
+ 2.137094 0 1 poisson 1500 ------- 1 0.0 1.0 108 108
+ 2.145336 0 1 poisson 1500 ------- 1 0.0 1.0 109 109
r 2.146431 0 1 poisson 1500 ------- 1 0.0 1.0 105 105
- 2.148431 0 1 poisson 1500 ------- 1 0.0 1.0 107 107
+ 2.155387 0 1 poisson 1500 ------- 1 0.0 1.0 110 110
r 2.158431 0 1 poisson 1500 ------- 1 0.0 1.0 106 106
- 2.160431 0 1 poisson 1500 ------- 1 0.0 1.0 108 108
r 2.170431 0 1 poisson 1500 ------- 1 0.0 1.0 107 107
- 2.172431 0 1 poisson 1500 ------- 1 0.0 1.0 109 109
+ 2.175245 0 1 poisson 1500 ------- 1 0.0 1.0 111 111
r 2.182431 0 1 poisson 1500 ------- 1 0.0 1.0 108 108
- 2.184431 0 1 poisson 1500 ------- 1 0.0 1.0 110 110
r 2.194431 0 1 poisson 1500 ------- 1 0.0 1.0 109 109
- 2.196431 0 1 poisson 1500 ------- 1 0.0 1.0 111 111
r 2.206431 0 1 poisson 1500 ------- 1 0.0 1.0 110 110
r 2.218431 0 1 poisson 1500 ------- 1 0.0 1.0 111 111
+ 2.227481 0 1 poisson 1500 ------- 1 0.0 1.0 112 112
- 2.227481 0 1 poisson 1500 ------- 1 0.0 1.0 112 112
+ 2.237854 0 1 poisson 1500 ------- 1 0.0 1.0 113 113
- 2.239481 0 1 poisson 1500 ------- 1 0.0 1.0 113 113
+ 2.248304 0 1 poisson 1500 ------- 1 0.0 1.0 114 114
r 2.249481 0 1 poisson 1500 ------- 1 0.0 1.0 112 112
- 2.251481 0 1 poisson 1500 ------- 1 0.0 1.0 114 114
r 2.261481 0 1 poisson 1500 ------- 1 0.0 1.0 113 113
+ 2.262262 0 1 poisson 1500 ------- 1 0.0 1.0 115 115
- 2.263481 0 1 poisson 1500 ------- 1 0.0 1.0 115 115
r 2.273481 0 1 poisson 1500 ------- 1 0.0 1.0 114 114
r 2.285481 0 1 poisson 1500 ------- 1 0.0 1.0 115 115
+ 2.289131 0 1 poisson 1500 ------- 1 0.0 1.0 116 116
- 2.289131 0 1 poisson 1500 ------- 1 0.0 1.0 116 116
+ 2.29047 0 1 poisson 1500 ------- 1 0.0 1.0 117 117
- 2.301131 0 1 poisson 1500 ------- 1 0.0 1.0 117 117
+ 2.309936 0 1 poisson 1500 ------- 1 0.0 1.0 118 118
r 2.311131 0 1 poisson 1500 ------- 1 0.0 1.0 116 116
- 2.313131 0 1 poisson 1500 ------- 1 0.0 1.0 118 118
+ 2.320585 0 1 poisson 1500 ------- 1 0.0 1.0 119 119
r 2.323131 0 1 poisson 1500 ------- 1 0.0 1.0 117 117
- 2.325131 0 1 poisson 1500 ------- 1 0.0 1.0 119 119
+ 2.331455 0 1 poisson 1500 ------- 1 0.0 1.0 120 120
r 2.335131 0 1 poisson 1500 ------- 1 0.0 1.0 118 118
- 2.337131 0 1 poisson 1500 ------- 1 0.0 1.0 120 120
+ 2.342795 0 1 poisson 1500 ------- 1 0.0 1.0 121 121
+ 2.346673 0 1 poisson 1500 ------- 1 0.0 1.0 122 122
r 2.347131 0 1 poisson 1500 ------- 1 0.0 1.0 119 119
- 2.349131 0 1 poisson 1500 ------- 1 0.0 1.0 121 121
+ 2.355819 0 1 poisson 1500 ------- 1 0.0 1.0 123 123
+ 2.357195 0 1 poisson 1500 ------- 1 0.0 1.0 124 124
r 2.359131 0 1 poisson 1500 ------- 1 0.0 1.0 120 120
- 2.361131 0 1 poisson 1500 ------- 1 0.0 1.0 122 122
+ 2.363175 0 1 poisson 1500 ------- 1 0.0 1.0 125 125
+ 2.365216 0 1 poisson 1500 ------- 1 0.0 1.0 126 126
r 2.371131 0 1 poisson 1500 ------- 1 0.0 1.0 121 121
- 2.373131 0 1 poisson 1500 ------- 1 0.0 1.0 123 123
r 2.383131 0 1 poisson 1500 ------- 1 0.0 1.0 122 122
- 2.385131 0 1 poisson 1500 ------- 1 0.0 1.0 124 124
+ 2.388482 0 1 poisson 1500 ------- 1 0.0 1.0 127 127
r 2.395131 0 1 poisson 1500 ------- 1 0.0 1.0 123 123
- 2.397131 0 1 poisson 1500 ------- 1 0.0 1.0 125 125
+ 2.406746 0 1 poisson 1500 ------- 1 0.0 1.0 128 128
r 2.407131 0 1 poisson 1500 ------- 1 0.0 1.0 124 124
- 2.409131 0 1 poisson 1500 ------- 1 0.0 1.0 126 126
r 2.419131 0 1 poisson 1500 ------- 1 0.0 1.0 125 125
- 2.421131 0 1 poisson 1500 ------- 1 0.0 1.0 127 127
r 2.431131 0 1 poisson 1500 ------- 1 0.0 1.0 126 126
- 2.433131 0 1 poisson 1500 ------- 1 0.0 1.0 128 128
+ 2.441372 0 1 poisson 1500 ------- 1 0.0 1.0 129 129
r 2.443131 0 1 poisson 1500 ------- 1 0.0 1.0 127 127
- 2.445131 0 1 poisson 1500 ------- 1 0.0 1.0 129 129
r 2.455131 0 1 poisson 1500 ------- 1 0.0 1.0 128 128
+ 2.463268 0 1 poisson 1500 ------- 1 0.0 1.0 130 130
- 2.463268 0 1 poisson 1500 ------- 1 0.0 1.0 130 130
+ 2.465007 0 1 poisson 1500 ------- 1 0.0 1.0 131 131
r 2.467131 0 1 poisson 1500 ------- 1 0.0 1.0 129 129
- 2.475268 0 1 poisson 1500 ------- 1 0.0 1.0 131 131
r 2.485268 0 1 poisson 1500 ------- 1 0.0 1.0 130 130
r 2.497268 0 1 poisson 1500 ------- 1 0.0 1.0 131 131
+ 2.505824 0 1 poisson 1500 ------- 1 0.0 1.0 132 132
- 2.505824 0 1 poisson 1500 ------- 1 0.0 1.0 132 132
+ 2.512738 0 1 poisson 1500 ------- 1 0.0 1.0 133 133
+ 2.517132 0 1 poisson 1500 ------- 1 0.0 1.0 134 134
- 2.517824 0 1 poisson 1500 ------- 1 0.0 1.0 133 133
r 2.527824 0 1 poisson 1500 ------- 1 0.0 1.0 132 132
- 2.529824 0 1 poisson 1500 ------- 1 0.0 1.0 134 134
+ 2.535871 0 1 poisson 1500 ------- 1 0.0 1.0 135 135
+ 2.538221 0 1 poisson 1500 ------- 1 0.0 1.0 136 136
r 2.539824 0 1 poisson 1500 ------- 1 0.0 1.0 133 133
- 2.541824 0 1 poisson 1500 ------- 1 0.0 1.0 135 135
r 2.551824 0 1 poisson 1500 ------- 1 0.0 1.0 134 134
- 2.553824 0 1 poisson 1500 ------- 1 0.0 1.0 136 136
r 2.563824 0 1 poisson 1500 ------- 1 0.0 1.0 135 135
+ 2.574036 0 1 poisson 1500 ------- 1 0.0 1.0 137 137
- 2.574036 0 1 poisson 1500 ------- 1 0.0 1.0 137 137
r 2.575824 0 1 poisson 1500 ------- 1 0.0 1.0 136 136
+ 2.587665 0 1 poisson 1500 ------- 1 0.0 1.0 138 138
- 2.587665 0 1 poisson 1500 ------- 1 0.0 1.0 138 138
+ 2.590578 0 1 poisson 1500 ------- 1 0.0 1.0 139 139
r 2.596036 0 1 poisson 1500 ------- 1 0.0 1.0 137 137
+ 2.596273 0 1 poisson 1500 ------- 1 0.0 1.0 140 140
- 2.599665 0 1 poisson 1500 ------- 1 0.0 1.0 139 139
+ 2.606834 0 1 poisson 1500 ------- 1 0.0 1.0 141 141
r 2.609665 0 1 poisson 1500 ------- 1 0.0 1.0 138 138
- 2.611665 0 1 poisson 1500 ------- 1 0.0 1.0 140 140
r 2.621665 0 1 poisson 1500 ------- 1 0.0 1.0 139 139
- 2.623665 0 1 poisson 1500 ------- 1 0.0 1.0 141 141
+ 2.625454 0 1 poisson 1500 ------- 1 0.0 1.0 142 142
r 2.633665 0 1 poisson 1500 ------- 1 0.0 1.0 140 140
- 2.635665 0 1 poisson 1500 ------- 1 0.0 1.0 142 142
+ 2.635772 0 1 poisson 1500 ------- 1 0.0 1.0 143 143
+ 2.636555 0 1 poisson 1500 ------- 1 0.0 1.0 144 144
r 2.645665 0 1 poisson 1500 ------- 1 0.0 1.0 141 141
+ 2.646364 0 1 poisson 1500 ------- 1 0.0 1.0 145 145
- 2.647665 0 1 poisson 1500 ------- 1 0.0 1.0 143 143
+ 2.647675 0 1 poisson 1500 ------- 1 0.0 1.0 146 146
+ 2.648221 0 1 poisson 1500 ------- 1 0.0 1.0 147 147
+ 2.649472 0 1 poisson 1500 ------- 1 0.0 1.0 148 148
r 2.657665 0 1 poisson 1500 ------- 1 0.0 1.0 142 142
- 2.659665 0 1 poisson 1500 ------- 1 0.0 1.0 144 144
r 2.669665 0 1 poisson 1500 ------- 1 0.0 1.0 143 143
- 2.671665 0 1 poisson 1500 ------- 1 0.0 1.0 145 145
+ 2.673285 0 1 poisson 1500 ------- 1 0.0 1.0 149 149
+ 2.673999 0 1 poisson 1500 ------- 1 0.0 1.0 150 150
r 2.681665 0 1 poisson 1500 ------- 1 0.0 1.0 144 144
+ 2.681777 0 1 poisson 1500 ------- 1 0.0 1.0 151 151
- 2.683665 0 1 poisson 1500 ------- 1 0.0 1.0 146 146
+ 2.68967 0 1 poisson 1500 ------- 1 0.0 1.0 152 152
r 2.693665 0 1 poisson 1500 ------- 1 0.0 1.0 145 145
- 2.695665 0 1 poisson 1500 ------- 1 0.0 1.0 147 147
r 2.705665 0 1 poisson 1500 ------- 1 0.0 1.0 146 146
- 2.707665 0 1 poisson 1500 ------- 1 0.0 1.0 148 148
r 2.717665 0 1 poisson 1500 ------- 1 0.0 1.0 147 147
- 2.719665 0 1 poisson 1500 ------- 1 0.0 1.0 149 149
+ 2.723911 0 1 poisson 1500 ------- 1 0.0 1.0 153 153
+ 2.724272 0 1 poisson 1500 ------- 1 0.0 1.0 154 154
r 2.729665 0 1 poisson 1500 ------- 1 0.0 1.0 148 148
- 2.731665 0 1 poisson 1500 ------- 1 0.0 1.0 150 150
+ 2.73258 0 1 poisson 1500 ------- 1 0.0 1.0 155 155
+ 2.734181 0 1 poisson 1500 ------- 1 0.0 1.0 156 156
+ 2.73816 0 1 poisson 1500 ------- 1 0.0 1.0 157 157
r 2.741665 0 1 poisson 1500 ------- 1 0.0 1.0 149 149
- 2.743665 0 1 poisson 1500 ------- 1 0.0 1.0 151 151
r 2.753665 0 1 poisson 1500 ------- 1 0.0 1.0 150 150
+ 2.755037 0 1 poisson 1500 ------- 1 0.0 1.0 158 158
- 2.755665 0 1 poisson 1500 ------- 1 0.0 1.0 152 152
+ 2.764321 0 1 poisson 1500 ------- 1 0.0 1.0 159 159
r 2.765665 0 1 poisson 1500 ------- 1 0.0 1.0 151 151
- 2.767665 0 1 poisson 1500 ------- 1 0.0 1.0 153 153
+ 2.76796 0 1 poisson 1500 ------- 1 0.0 1.0 160 160
r 2.777665 0 1 poisson 1500 ------- 1 0.0 1.0 152 152
- 2.779665 0 1 poisson 1500 ------- 1 0.0 1.0 154 154
+ 2.787924 0 1 poisson 1500 ------- 1 0.0 1.0 161 161
r 2.789665 0 1 poisson 1500 ------- 1 0.0 1.0 153 153
- 2.791665 0 1 poisson 1500 ------- 1 0.0 1.0 155 155
+ 2.792882 0 1 poisson 1500 ------- 1 0.0 1.0 162 162
+ 2.798183 0 1 poisson 1500 ------- 1 0.0 1.0 163 163
r 2.801665 0 1 poisson 1500 ------- 1 0.0 1.0 154 154
- 2.803665 0 1 poisson 1500 ------- 1 0.0 1.0 156 156
r 2.813665 0 1 poisson 1500 ------- 1 0.0 1.0 155 155
- 2.815665 0 1 poisson 1500 ------- 1 0.0 1.0 157 157
+ 2.821186 0 1 poisson 1500 ------- 1 0.0 1.0 164 164
r 2.825665 0 1 poisson 1500 ------- 1 0.0 1.0 156 156
- 2.827665 0 1 poisson 1500 ------- 1 0.0 1.0 158 158
r 2.837665 0 1 poisson 1500 ------- 1 0.0 1.0 157 157
+ 2.837973 0 1 poisson 1500 ------- 1 0.0 1.0 165 165
- 2.839665 0 1 poisson 1500 ------- 1 0.0 1.0 159 159
r 2.849665 0 1 poisson 1500 ------- 1 0.0 1.0 158 158
+ 2.85024 0 1 poisson 1500 ------- 1 0.0 1.0 166 166
- 2.851665 0 1 poisson 1500 ------- 1 0.0 1.0 160 160
+ 2.856448 0 1 poisson 1500 ------- 1 0.0 1.0 167 167
r 2.861665 0 1 poisson 1500 ------- 1 0.0 1.0 159 159
+ 2.861784 0 1 poisson 1500 ------- 1 0.0 1.0 168 168
- 2.863665 0 1 poisson 1500 ------- 1 0.0 1.0 161 161
+ 2.86377 0 1 poisson 1500 ------- 1 0.0 1.0 169 169
r 2.873665 0 1 poisson 1500 ------- 1 0.0 1.0 160 160
- 2.875665 0 1 poisson 1500 ------- 1 0.0 1.0 162 162
+ 2.87983 0 1 poisson 1500 ------- 1 0.0 1.0 170 170
r 2.885665 0 1 poisson 1500 ------- 1 0.0 1.0 161 161
- 2.887665 0 1 poisson 1500 ------- 1 0.0 1.0 163 163
r 2.897665 0 1 poisson 1500 ------- 1 0.0 1.0 162 162
- 2.899665 0 1 poisson 1500 ------- 1 0.0 1.0 164 164
+ 2.902479 0 1 poisson 1500 ------- 1 0.0 1.0 171 171
r 2.909665 0 1 poisson 1500 ------- 1 0.0 1.0 163 163
- 2.911665 0 1 poisson 1500 ------- 1 0.0 1.0 165 165
r 2.921665 0 1 poisson 1500 ------- 1 0.0 1.0 164 164
+ 2.923265 0 1 poisson 1500 ------- 1 0.0 1.0 172 172
- 2.923665 0 1 poisson 1500 ------- 1 0.0 1.0 166 166
r 2.933665 0 1 poisson 1500 ------- 1 0.0 1.0 165 165
- 2.935665 0 1 poisson 1500 ------- 1 0.0 1.0 167 167
r 2.945665 0 1 poisson 1500 ------- 1 0.0 1.0 166 166
- 2.947665 0 1 poisson 1500 ------- 1 0.0 1.0 168 168
r 2.957665 0 1 poisson 1500 ------- 1 0.0 1.0 167 167
- 2.959665 0 1 poisson 1500 ------- 1 0.0 1.0 169 169
+ 2.963437 0 1 poisson 1500 ------- 1 0.0 1.0 173 173
r 2.969665 0 1 poisson 1500 ------- 1 0.0 1.0 168 168
- 2.971665 0 1 poisson 1500 ------- 1 0.0 1.0 170 170
r 2.981665 0 1 poisson 1500 ------- 1 0.0 1.0 169 169
- 2.983665 0 1 poisson 1500 ------- 1 0.0 1.0 171 171
r 2.993665 0 1 poisson 1500 ------- 1 0.0 1.0 170 170
- 2.995665 0 1 poisson 1500 ------- 1 0.0 1.0 172 172
+ 2.995759 0 1 poisson 1500 ------- 1 0.0 1.0 174 174
r 3.005665 0 1 poisson 1500 ------- 1 0.0 1.0 171 171
- 3.007665 0 1 poisson 1500 ------- 1 0.0 1.0 173 173
r 3.017665 0 1 poisson 1500 ------- 1 0.0 1.0 172 172
- 3.019665 0 1 poisson 1500 ------- 1 0.0 1.0 174 174
+ 3.022603 0 1 poisson 1500 ------- 1 0.0 1.0 175 175
r 3.029665 0 1 poisson 1500 ------- 1 0.0 1.0 173 173
- 3.031665 0 1 poisson 1500 ------- 1 0.0 1.0 175 175
r 3.041665 0 1 poisson 1500 ------- 1 0.0 1.0 174 174
r 3.053665 0 1 poisson 1500 ------- 1 0.0 1.0 175 175
+ 3.059491 0 1 poisson 1500 ------- 1 0.0 1.0 176 176
- 3.059491 0 1 poisson 1500 ------- 1 0.0 1.0 176 176
+ 3.072427 0 1 poisson 1500 ------- 1 0.0 1.0 177 177
- 3.072427 0 1 poisson 1500 ------- 1 0.0 1.0 177 177
r 3.081491 0 1 poisson 1500 ------- 1 0.0 1.0 176 176
+ 3.091882 0 1 poisson 1500 ------- 1 0.0 1.0 178 178
- 3.091882 0 1 poisson 1500 ------- 1 0.0 1.0 178 178
r 3.094427 0 1 poisson 1500 ------- 1 0.0 1.0 177 177
r 3.113882 0 1 poisson 1500 ------- 1 0.0 1.0 178 178
+ 3.12844 0 1 poisson 1500 ------- 1 0.0 1.0 179 179
- 3.12844 0 1 poisson 1500 ------- 1 0.0 1.0 179 179
+ 3.129036 0 1 poisson 1500 ------- 1 0.0 1.0 180 180
+ 3.131509 0 1 poisson 1500 ------- 1 0.0 1.0 181 181
+ 3.135865 0 1 poisson 1500 ------- 1 0.0 1.0 182 182
- 3.14044 0 1 poisson 1500 ------- 1 0.0 1.0 180 180
+ 3.146515 0 1 poisson 1500 ------- 1 0.0 1.0 183 183
+ 3.148868 0 1 poisson 1500 ------- 1 0.0 1.0 184 184
r 3.15044 0 1 poisson 1500 ------- 1 0.0 1.0 179 179
- 3.15244 0 1 poisson 1500 ------- 1 0.0 1.0 181 181
+ 3.160671 0 1 poisson 1500 ------- 1 0.0 1.0 185 185
r 3.16244 0 1 poisson 1500 ------- 1 0.0 1.0 180 180
- 3.16444 0 1 poisson 1500 ------- 1 0.0 1.0 182 182
+ 3.168373 0 1 poisson 1500 ------- 1 0.0 1.0 186 186
r 3.17444 0 1 poisson 1500 ------- 1 0.0 1.0 181 181
- 3.17644 0 1 poisson 1500 ------- 1 0.0 1.0 183 183
r 3.18644 0 1 poisson 1500 ------- 1 0.0 1.0 182 182
- 3.18844 0 1 poisson 1500 ------- 1 0.0 1.0 184 184
+ 3.19416 0 1 poisson 1500 ------- 1 0.0 1.0 187 187
r 3.19844 0 1 poisson 1500 ------- 1 0.0 1.0 183 183
- 3.20044 0 1 poisson 1500 ------- 1 0.0 1.0 185 185
+ 3.201035 0 1 poisson 1500 ------- 1 0.0 1.0 188 188
r 3.21044 0 1 poisson 1500 ------- 1 0.0 1.0 184 184
+ 3.212083 0 1 poisson 1500 ------- 1 0.0 1.0 189 189
- 3.21244 0 1 poisson 1500 ------- 1 0.0 1.0 186 186
+ 3.214484 0 1 poisson 1500 ------- 1 0.0 1.0 190 190
+ 3.21721 0 1 poisson 1500 ------- 1 0.0 1.0 191 191
+ 3.219154 0 1 poisson 1500 ------- 1 0.0 1.0 192 192
r 3.22244 0 1 poisson 1500 ------- 1 0.0 1.0 185 185
- 3.22444 0 1 poisson 1500 ------- 1 0.0 1.0 187 187
r 3.23444 0 1 poisson 1500 ------- 1 0.0 1.0 186 186