V -t * -v 1.0a5 -a 0
A -t * -n 1 -p 0 -o 0xffffffff -c 31 -a 1
A -t * -h 1 -m 2147483647 -s 0
c -t * -i 1 -n Blue
c -t * -i 2 -n Red
n -t * -a 0 -s 0 -S UP -v circle -c black -i black
n -t * -a 1 -s 1 -S UP -v circle -c black -i black
l -t * -s 0 -d 1 -S UP -r 1000000 -D 0.01 -c black
+ -t 0.5 -s 0 -d 1 -p poisson -e 1500 -c 1 -i 0 -a 1 -x {0.0 1.0 0 ------- null}
- -t 0.5 -s 0 -d 1 -p poisson -e 1500 -c 1 -i 0 -a 1 -x {0.0 1.0 0 ------- null}
h -t 0.5 -s 0 -d 1 -p poisson -e 1500 -c 1 -i 0 -a 1 -x {0.0 1.0 -1 ------- null}
r -t 0.522 -s 0 -d 1 -p poisson -e 1500 -c 1 -i 0 -a 1 -x {0.0 1.0 0 ------- null}
+ -t 0.600898642192096 -s 0 -d 1 -p poisson -e 1500 -c 1 -i 1 -a 1 -x {0.0 1.0 1 ------- null}
- -t 0.600898642192096 -s 0 -d 1 -p poisson -e 1500 -c 1 -i 1 -a 1 -x {0.0 1.0 1 ------- null}
h -t 0.600898642192096 -s 0 -d 1 -p poisson -e 1500 -c 1 -i 1 -a 1 -x {0.0 1.0 -1 ------- null}
+ -t 0.608315924895436 -s 0 -d 1 -p poisson -e 1500 -c 1 -i 2 -a 1 -x {0.0 1.0 2 ------- null}
- -t 0.612898642192096 -s 0 -d 1 -p poisson -e 1500 -c 1 -i 2 -a 1 -x {0.0 1.0 2 ------- null}
h -t 0.612898642192096 -s 0 -d 1 -p poisson -e 1500 -c 1 -i 2 -a 1 -x {0.0 1.0 -1 ------- null}
r -t 0.622898642192096 -s 0 -d 1 -p poisson -e 1500 -c 1 -i 1 -a 1 -x {0.0 1.0 1 ------- null}
r -t 0.634898642192096 -s 0 -d 1 -p poisson -e 1500 -c 1 -i 2 -a 1 -x {0.0 1.0 2 ------- null}
+ -t 0.662053000515304 -s 0 -d 1 -p poisson -e 1500 -c 1 -i 3 -a 1 -x {0.0 1.0 3 ------- null}
- -t 0.662053000515304 -s 0 -d 1 -p poisson -e 1500 -c 1 -i 3 -a 1 -x {0.0 1.0 3 ------- null}
h -t 0.662053000515304 -s 0 -d 1 -p poisson -e 1500 -c 1 -i 3 -a 1 -x {0.0 1.0 -1 ------- null}
r -t 0.684053000515304 -s 0 -d 1 -p poisson -e 1500 -c 1 -i 3 -a 1 -x {0.0 1.0 3 ------- null}
+ -t 0.692735427163791 -s 0 -d 1 -p poisson -e 1500 -c 1 -i 4 -a 1 -x {0.0 1.0 4 ------- null}
- -t 0.692735427163791 -s 0 -d 1 -p poisson -e 1500 -c 1 -i 4 -a 1 -x {0.0 1.0 4 ------- null}
h -t 0.692735427163791 -s 0 -d 1 -p poisson -e 1500 -c 1 -i 4 -a 1 -x {0.0 1.0 -1 ------- null}
+ -t 0.703072067048782 -s 0 -d 1 -p poisson -e 1500 -c 1 -i 5 -a 1 -x {0.0 1.0 5 ------- null}
- -t 0.704735427163791 -s 0 -d 1 -p poisson -e 1500 -c 1 -i 5 -a 1 -x {0.0 1.0 5 ------- null}
h -t 0.704735427163791 -s 0 -d 1 -p poisson -e 1500 -c 1 -i 5 -a 1 -x {0.0 1.0 -1 ------- null}
+ -t 0.705904064422156 -s 0 -d 1 -p poisson -e 1500 -c 1 -i 6 -a 1 -x {0.0 1.0 6 ------- null}
r -t 0.714735427163791 -s 0 -d 1 -p poisson -e 1500 -c 1 -i 4 -a 1 -x {0.0 1.0 4 ------- null}
- -t 0.716735427163791 -s 0 -d 1 -p poisson -e 1500 -c 1 -i 6 -a 1 -x {0.0 1.0 6 ------- null}
h -t 0.716735427163791 -s 0 -d 1 -p poisson -e 1500 -c 1 -i 6 -a 1 -x {0.0 1.0 -1 ------- null}
+ -t 0.720577844185107 -s 0 -d 1 -p poisson -e 1500 -c 1 -i 7 -a 1 -x {0.0 1.0 7 ------- null}
+ -t 0.723138994051756 -s 0 -d 1 -p poisson -e 1500 -c 1 -i 8 -a 1 -x {0.0 1.0 8 ------- null}
r -t 0.726735427163791 -s 0 -d 1 -p poisson -e 1500 -c 1 -i 5 -a 1 -x {0.0 1.0 5 ------- null}
- -t 0.728735427163791 -s 0 -d 1 -p poisson -e 1500 -c 1 -i 7 -a 1 -x {0.0 1.0 7 ------- null}
h -t 0.728735427163791 -s 0 -d 1 -p poisson -e 1500 -c 1 -i 7 -a 1 -x {0.0 1.0 -1 ------- null}
r -t 0.738735427163791 -s 0 -d 1 -p poisson -e 1500 -c 1 -i 6 -a 1 -x {0.0 1.0 6 ------- null}
- -t 0.740735427163791 -s 0 -d 1 -p poisson -e 1500 -c 1 -i 8 -a 1 -x {0.0 1.0 8 ------- null}
h -t 0.740735427163791 -s 0 -d 1 -p poisson -e 1500 -c 1 -i 8 -a 1 -x {0.0 1.0 -1 ------- null}
+ -t 0.741453089319744 -s 0 -d 1 -p poisson -e 1500 -c 1 -i 9 -a 1 -x {0.0 1.0 9 ------- null}
+ -t 0.747112818460107 -s 0 -d 1 -p poisson -e 1500 -c 1 -i 10 -a 1 -x {0.0 1.0 10 ------- null}
r -t 0.750735427163791 -s 0 -d 1 -p poisson -e 1500 -c 1 -i 7 -a 1 -x {0.0 1.0 7 ------- null}
- -t 0.752735427163791 -s 0 -d 1 -p poisson -e 1500 -c 1 -i 9 -a 1 -x {0.0 1.0 9 ------- null}
h -t 0.752735427163791 -s 0 -d 1 -p poisson -e 1500 -c 1 -i 9 -a 1 -x {0.0 1.0 -1 ------- null}
+ -t 0.761944290260571 -s 0 -d 1 -p poisson -e 1500 -c 1 -i 11 -a 1 -x {0.0 1.0 11 ------- null}
r -t 0.762735427163791 -s 0 -d 1 -p poisson -e 1500 -c 1 -i 8 -a 1 -x {0.0 1.0 8 ------- null}
+ -t 0.764202055332705 -s 0 -d 1 -p poisson -e 1500 -c 1 -i 12 -a 1 -x {0.0 1.0 12 ------- null}
- -t 0.764735427163791 -s 0 -d 1 -p poisson -e 1500 -c 1 -i 10 -a 1 -x {0.0 1.0 10 ------- null}
h -t 0.764735427163791 -s 0 -d 1 -p poisson -e 1500 -c 1 -i 10 -a 1 -x {0.0 1.0 -1 ------- null}
r -t 0.774735427163791 -s 0 -d 1 -p poisson -e 1500 -c 1 -i 9 -a 1 -x {0.0 1.0 9 ------- null}
- -t 0.776735427163791 -s 0 -d 1 -p poisson -e 1500 -c 1 -i 11 -a 1 -x {0.0 1.0 11 ------- null}
h -t 0.776735427163791 -s 0 -d 1 -p poisson -e 1500 -c 1 -i 11 -a 1 -x {0.0 1.0 -1 ------- null}
r -t 0.786735427163791 -s 0 -d 1 -p poisson -e 1500 -c 1 -i 10 -a 1 -x {0.0 1.0 10 ------- null}
+ -t 0.787027351564609 -s 0 -d 1 -p poisson -e 1500 -c 1 -i 13 -a 1 -x {0.0 1.0 13 ------- null}
- -t 0.788735427163791 -s 0 -d 1 -p poisson -e 1500 -c 1 -i 12 -a 1 -x {0.0 1.0 12 ------- null}
h -t 0.788735427163791 -s 0 -d 1 -p poisson -e 1500 -c 1 -i 12 -a 1 -x {0.0 1.0 -1 ------- null}
r -t 0.798735427163791 -s 0 -d 1 -p poisson -e 1500 -c 1 -i 11 -a 1 -x {0.0 1.0 11 ------- null}
- -t 0.800735427163791 -s 0 -d 1 -p poisson -e 1500 -c 1 -i 13 -a 1 -x {0.0 1.0 13 ------- null}
h -t 0.800735427163791 -s 0 -d 1 -p poisson -e 1500 -c 1 -i 13 -a 1 -x {0.0 1.0 -1 ------- null}
r -t 0.810735427163791 -s 0 -d 1 -p poisson -e 1500 -c 1 -i 12 -a 1 -x {0.0 1.0 12 ------- null}
r -t 0.822735427163791 -s 0 -d 1 -p poisson -e 1500 -c 1 -i 13 -a 1 -x {0.0 1.0 13 ------- null}
+ -t 0.826833806389426 -s 0 -d 1 -p poisson -e 1500 -c 1 -i 14 -a 1 -x {0.0 1.0 14 ------- null}
- -t 0.826833806389426 -s 0 -d 1 -p poisson -e 1500 -c 1 -i 14 -a 1 -x {0.0 1.0 14 ------- null}
h -t 0.826833806389426 -s 0 -d 1 -p poisson -e 1500 -c 1 -i 14 -a 1 -x {0.0 1.0 -1 ------- null}
+ -t 0.832469781852745 -s 0 -d 1 -p poisson -e 1500 -c 1 -i 15 -a 1 -x {0.0 1.0 15 ------- null}
- -t 0.838833806389426 -s 0 -d 1 -p poisson -e 1500 -c 1 -i 15 -a 1 -x {0.0 1.0 15 ------- null}
h -t 0.838833806389426 -s 0 -d 1 -p poisson -e 1500 -c 1 -i 15 -a 1 -x {0.0 1.0 -1 ------- null}
r -t 0.848833806389426 -s 0 -d 1 -p poisson -e 1500 -c 1 -i 14 -a 1 -x {0.0 1.0 14 ------- null}
+ -t 0.859921237980444 -s 0 -d 1 -p poisson -e 1500 -c 1 -i 16 -a 1 -x {0.0 1.0 16 ------- null}
- -t 0.859921237980444 -s 0 -d 1 -p poisson -e 1500 -c 1 -i 16 -a 1 -x {0.0 1.0 16 ------- null}
h -t 0.859921237980444 -s 0 -d 1 -p poisson -e 1500 -c 1 -i 16 -a 1 -x {0.0 1.0 -1 ------- null}
r -t 0.860833806389426 -s 0 -d 1 -p poisson -e 1500 -c 1 -i 15 -a 1 -x {0.0 1.0 15 ------- null}
+ -t 0.861830369401028 -s 0 -d 1 -p poisson -e 1500 -c 1 -i 17 -a 1 -x {0.0 1.0 17 ------- null}
- -t 0.871921237980444 -s 0 -d 1 -p poisson -e 1500 -c 1 -i 17 -a 1 -x {0.0 1.0 17 ------- null}
h -t 0.871921237980444 -s 0 -d 1 -p poisson -e 1500 -c 1 -i 17 -a 1 -x {0.0 1.0 -1 ------- null}
+ -t 0.872678770274903 -s 0 -d 1 -p poisson -e 1500 -c 1 -i 18 -a 1 -x {0.0 1.0 18 ------- null}
r -t 0.881921237980444 -s 0 -d 1 -p poisson -e 1500 -c 1 -i 16 -a 1 -x {0.0 1.0 16 ------- null}
- -t 0.883921237980444 -s 0 -d 1 -p poisson -e 1500 -c 1 -i 18 -a 1 -x {0.0 1.0 18 ------- null}
h -t 0.883921237980444 -s 0 -d 1 -p poisson -e 1500 -c 1 -i 18 -a 1 -x {0.0 1.0 -1 ------- null}
r -t 0.893921237980444 -s 0 -d 1 -p poisson -e 1500 -c 1 -i 17 -a 1 -x {0.0 1.0 17 ------- null}
+ -t 0.89470928934845 -s 0 -d 1 -p poisson -e 1500 -c 1 -i 19 -a 1 -x {0.0 1.0 19 ------- null}
- -t 0.895921237980444 -s 0 -d 1 -p poisson -e 1500 -c 1 -i 19 -a 1 -x {0.0 1.0 19 ------- null}
h -t 0.895921237980444 -s 0 -d 1 -p poisson -e 1500 -c 1 -i 19 -a 1 -x {0.0 1.0 -1 ------- null}
r -t 0.905921237980444 -s 0 -d 1 -p poisson -e 1500 -c 1 -i 18 -a 1 -x {0.0 1.0 18 ------- null}
r -t 0.917921237980444 -s 0 -d 1 -p poisson -e 1500 -c 1 -i 19 -a 1 -x {0.0 1.0 19 ------- null}
+ -t 0.924557513482161 -s 0 -d 1 -p poisson -e 1500 -c 1 -i 20 -a 1 -x {0.0 1.0 20 ------- null}
- -t 0.924557513482161 -s 0 -d 1 -p poisson -e 1500 -c 1 -i 20 -a 1 -x {0.0 1.0 20 ------- null}
h -t 0.924557513482161 -s 0 -d 1 -p poisson -e 1500 -c 1 -i 20 -a 1 -x {0.0 1.0 -1 ------- null}
+ -t 0.927265676373189 -s 0 -d 1 -p poisson -e 1500 -c 1 -i 21 -a 1 -x {0.0 1.0 21 ------- null}
- -t 0.936557513482161 -s 0 -d 1 -p poisson -e 1500 -c 1 -i 21 -a 1 -x {0.0 1.0 21 ------- null}
h -t 0.936557513482161 -s 0 -d 1 -p poisson -e 1500 -c 1 -i 21 -a 1 -x {0.0 1.0 -1 ------- null}
+ -t 0.940572106007075 -s 0 -d 1 -p poisson -e 1500 -c 1 -i 22 -a 1 -x {0.0 1.0 22 ------- null}
r -t 0.946557513482161 -s 0 -d 1 -p poisson -e 1500 -c 1 -i 20 -a 1 -x {0.0 1.0 20 ------- null}
- -t 0.948557513482161 -s 0 -d 1 -p poisson -e 1500 -c 1 -i 22 -a 1 -x {0.0 1.0 22 ------- null}
h -t 0.948557513482161 -s 0 -d 1 -p poisson -e 1500 -c 1 -i 22 -a 1 -x {0.0 1.0 -1 ------- null}
+ -t 0.957681009568029 -s 0 -d 1 -p poisson -e 1500 -c 1 -i 23 -a 1 -x {0.0 1.0 23 ------- null}
r -t 0.958557513482161 -s 0 -d 1 -p poisson -e 1500 -c 1 -i 21 -a 1 -x {0.0 1.0 21 ------- null}
- -t 0.960557513482161 -s 0 -d 1 -p poisson -e 1500 -c 1 -i 23 -a 1 -x {0.0 1.0 23 ------- null}
h -t 0.960557513482161 -s 0 -d 1 -p poisson -e 1500 -c 1 -i 23 -a 1 -x {0.0 1.0 -1 ------- null}
+ -t 0.968983859293502 -s 0 -d 1 -p poisson -e 1500 -c 1 -i 24 -a 1 -x {0.0 1.0 24 ------- null}
r -t 0.970557513482161 -s 0 -d 1 -p poisson -e 1500 -c 1 -i 22 -a 1 -x {0.0 1.0 22 ------- null}
- -t 0.972557513482161 -s 0 -d 1 -p poisson -e 1500 -c 1 -i 24 -a 1 -x {0.0 1.0 24 ------- null}
h -t 0.972557513482161 -s 0 -d 1 -p poisson -e 1500 -c 1 -i 24 -a 1 -x {0.0 1.0 -1 ------- null}
+ -t 0.977276848608691 -s 0 -d 1 -p poisson -e 1500 -c 1 -i 25 -a 1 -x {0.0 1.0 25 ------- null}
r -t 0.982557513482161 -s 0 -d 1 -p poisson -e 1500 -c 1 -i 23 -a 1 -x {0.0 1.0 23 ------- null}
- -t 0.984557513482161 -s 0 -d 1 -p poisson -e 1500 -c 1 -i 25 -a 1 -x {0.0 1.0 25 ------- null}
h -t 0.984557513482161 -s 0 -d 1 -p poisson -e 1500 -c 1 -i 25 -a 1 -x {0.0 1.0 -1 ------- null}
+ -t 0.986918796632989 -s 0 -d 1 -p poisson -e 1500 -c 1 -i 26 -a 1 -x {0.0 1.0 26 ------- null}
+ -t 0.99156375691341 -s 0 -d 1 -p poisson -e 1500 -c 1 -i 27 -a 1 -x {0.0 1.0 27 ------- null}
+ -t 0.993438560609896 -s 0 -d 1 -p poisson -e 1500 -c 1 -i 28 -a 1 -x {0.0 1.0 28 ------- null}
r -t 0.994557513482161 -s 0 -d 1 -p poisson -e 1500 -c 1 -i 24 -a 1 -x {0.0 1.0 24 ------- null}
+ -t 0.995643547986151 -s 0 -d 1 -p poisson -e 1500 -c 1 -i 29 -a 1 -x {0.0 1.0 29 ------- null}
- -t 0.996557513482161 -s 0 -d 1 -p poisson -e 1500 -c 1 -i 26 -a 1 -x {0.0 1.0 26 ------- null}
h -t 0.996557513482161 -s 0 -d 1 -p poisson -e 1500 -c 1 -i 26 -a 1 -x {0.0 1.0 -1 ------- null}
r -t 1.00655751348216 -s 0 -d 1 -p poisson -e 1500 -c 1 -i 25 -a 1 -x {0.0 1.0 25 ------- null}
- -t 1.00855751348216 -s 0 -d 1 -p poisson -e 1500 -c 1 -i 27 -a 1 -x {0.0 1.0 27 ------- null}
h -t 1.00855751348216 -s 0 -d 1 -p poisson -e 1500 -c 1 -i 27 -a 1 -x {0.0 1.0 -1 ------- null}
+ -t 1.01493352726184 -s 0 -d 1 -p poisson -e 1500 -c 1 -i 30 -a 1 -x {0.0 1.0 30 ------- null}
r -t 1.01855751348216 -s 0 -d 1 -p poisson -e 1500 -c 1 -i 26 -a 1 -x {0.0 1.0 26 ------- null}
- -t 1.02055751348216 -s 0 -d 1 -p poisson -e 1500 -c 1 -i 28 -a 1 -x {0.0 1.0 28 ------- null}
h -t 1.02055751348216 -s 0 -d 1 -p poisson -e 1500 -c 1 -i 28 -a 1 -x {0.0 1.0 -1 ------- null}
r -t 1.03055751348216 -s 0 -d 1 -p poisson -e 1500 -c 1 -i 27 -a 1 -x {0.0 1.0 27 ------- null}
- -t 1.03255751348216 -s 0 -d 1 -p poisson -e 1500 -c 1 -i 29 -a 1 -x {0.0 1.0 29 ------- null}
h -t 1.03255751348216 -s 0 -d 1 -p poisson -e 1500 -c 1 -i 29 -a 1 -x {0.0 1.0 -1 ------- null}
+ -t 1.0328959175912 -s 0 -d 1 -p poisson -e 1500 -c 1 -i 31 -a 1 -x {0.0 1.0 31 ------- null}
+ -t 1.03493235485836 -s 0 -d 1 -p poisson -e 1500 -c 1 -i 32 -a 1 -x {0.0 1.0 32 ------- null}
+ -t 1.03985322281458 -s 0 -d 1 -p poisson -e 1500 -c 1 -i 33 -a 1 -x {0.0 1.0 33 ------- null}
r -t 1.04255751348216 -s 0 -d 1 -p poisson -e 1500 -c 1 -i 28 -a 1 -x {0.0 1.0 28 ------- null}
+ -t 1.04328275268825 -s 0 -d 1 -p poisson -e 1500 -c 1 -i 34 -a 1 -x {0.0 1.0 34 ------- null}
+ -t 1.0445444022751 -s 0 -d 1 -p poisson -e 1500 -c 1 -i 35 -a 1 -x {0.0 1.0 35 ------- null}
- -t 1.04455751348216 -s 0 -d 1 -p poisson -e 1500 -c 1 -i 30 -a 1 -x {0.0 1.0 30 ------- null}
h -t 1.04455751348216 -s 0 -d 1 -p poisson -e 1500 -c 1 -i 30 -a 1 -x {0.0 1.0 -1 ------- null}
r -t 1.05455751348216 -s 0 -d 1 -p poisson -e 1500 -c 1 -i 29 -a 1 -x {0.0 1.0 29 ------- null}
+ -t 1.05594550577605 -s 0 -d 1 -p poisson -e 1500 -c 1 -i 36 -a 1 -x {0.0 1.0 36 ------- null}
- -t 1.05655751348216 -s 0 -d 1 -p poisson -e 1500 -c 1 -i 31 -a 1 -x {0.0 1.0 31 ------- null}
h -t 1.05655751348216 -s 0 -d 1 -p poisson -e 1500 -c 1 -i 31 -a 1 -x {0.0 1.0 -1 ------- null}
r -t 1.06655751348216 -s 0 -d 1 -p poisson -e 1500 -c 1 -i 30 -a 1 -x {0.0 1.0 30 ------- null}
- -t 1.06855751348216 -s 0 -d 1 -p poisson -e 1500 -c 1 -i 32 -a 1 -x {0.0 1.0 32 ------- null}
h -t 1.06855751348216 -s 0 -d 1 -p poisson -e 1500 -c 1 -i 32 -a 1 -x {0.0 1.0 -1 ------- null}
r -t 1.07855751348216 -s 0 -d 1 -p poisson -e 1500 -c 1 -i 31 -a 1 -x {0.0 1.0 31 ------- null}
- -t 1.08055751348216 -s 0 -d 1 -p poisson -e 1500 -c 1 -i 33 -a 1 -x {0.0 1.0 33 ------- null}
h -t 1.08055751348216 -s 0 -d 1 -p poisson -e 1500 -c 1 -i 33 -a 1 -x {0.0 1.0 -1 ------- null}
+ -t 1.08391925157499 -s 0 -d 1 -p poisson -e 1500 -c 1 -i 37 -a 1 -x {0.0 1.0 37 ------- null}
r -t 1.09055751348216 -s 0 -d 1 -p poisson -e 1500 -c 1 -i 32 -a 1 -x {0.0 1.0 32 ------- null}
- -t 1.09255751348216 -s 0 -d 1 -p poisson -e 1500 -c 1 -i 34 -a 1 -x {0.0 1.0 34 ------- null}
h -t 1.09255751348216 -s 0 -d 1 -p poisson -e 1500 -c 1 -i 34 -a 1 -x {0.0 1.0 -1 ------- null}
+ -t 1.09536127493639 -s 0 -d 1 -p poisson -e 1500 -c 1 -i 38 -a 1 -x {0.0 1.0 38 ------- null}
r -t 1.10255751348216 -s 0 -d 1 -p poisson -e 1500 -c 1 -i 33 -a 1 -x {0.0 1.0 33 ------- null}
- -t 1.10455751348216 -s 0 -d 1 -p poisson -e 1500 -c 1 -i 35 -a 1 -x {0.0 1.0 35 ------- null}
h -t 1.10455751348216 -s 0 -d 1 -p poisson -e 1500 -c 1 -i 35 -a 1 -x {0.0 1.0 -1 ------- null}
r -t 1.11455751348216 -s 0 -d 1 -p poisson -e 1500 -c 1 -i 34 -a 1 -x {0.0 1.0 34 ------- null}
+ -t 1.11651532212366 -s 0 -d 1 -p poisson -e 1500 -c 1 -i 39 -a 1 -x {0.0 1.0 39 ------- null}
- -t 1.11655751348216 -s 0 -d 1 -p poisson -e 1500 -c 1 -i 36 -a 1 -x {0.0 1.0 36 ------- null}
h -t 1.11655751348216 -s 0 -d 1 -p poisson -e 1500 -c 1 -i 36 -a 1 -x {0.0 1.0 -1 ------- null}
+ -t 1.11802366363532 -s 0 -d 1 -p poisson -e 1500 -c 1 -i 40 -a 1 -x {0.0 1.0 40 ------- null}
+ -t 1.11872133948772 -s 0 -d 1 -p poisson -e 1500 -c 1 -i 41 -a 1 -x {0.0 1.0 41 ------- null}
+ -t 1.12017423071777 -s 0 -d 1 -p poisson -e 1500 -c 1 -i 42 -a 1 -x {0.0 1.0 42 ------- null}
r -t 1.12655751348216 -s 0 -d 1 -p poisson -e 1500 -c 1 -i 35 -a 1 -x {0.0 1.0 35 ------- null}
- -t 1.12855751348216 -s 0 -d 1 -p poisson -e 1500 -c 1 -i 37 -a 1 -x {0.0 1.0 37 ------- null}
h -t 1.12855751348216 -s 0 -d 1 -p poisson -e 1500 -c 1 -i 37 -a 1 -x {0.0 1.0 -1 ------- null}
r -t 1.13855751348216 -s 0 -d 1 -p poisson -e 1500 -c 1 -i 36 -a 1 -x {0.0 1.0 36 ------- null}
- -t 1.14055751348216 -s 0 -d 1 -p poisson -e 1500 -c 1 -i 38 -a 1 -x {0.0 1.0 38 ------- null}
h -t 1.14055751348216 -s 0 -d 1 -p poisson -e 1500 -c 1 -i 38 -a 1 -x {0.0 1.0 -1 ------- null}
+ -t 1.14782446450892 -s 0 -d 1 -p poisson -e 1500 -c 1 -i 43 -a 1 -x {0.0 1.0 43 ------- null}
r -t 1.15055751348216 -s 0 -d 1 -p poisson -e 1500 -c 1 -i 37 -a 1 -x {0.0 1.0 37 ------- null}
- -t 1.15255751348216 -s 0 -d 1 -p poisson -e 1500 -c 1 -i 39 -a 1 -x {0.0 1.0 39 ------- null}
h -t 1.15255751348216 -s 0 -d 1 -p poisson -e 1500 -c 1 -i 39 -a 1 -x {0.0 1.0 -1 ------- null}
r -t 1.16255751348216 -s 0 -d 1 -p poisson -e 1500 -c 1 -i 38 -a 1 -x {0.0 1.0 38 ------- null}
- -t 1.16455751348216 -s 0 -d 1 -p poisson -e 1500 -c 1 -i 40 -a 1 -x {0.0 1.0 40 ------- null}
h -t 1.16455751348216 -s 0 -d 1 -p poisson -e 1500 -c 1 -i 40 -a 1 -x {0.0 1.0 -1 ------- null}
r -t 1.17455751348216 -s 0 -d 1 -p poisson -e 1500 -c 1 -i 39 -a 1 -x {0.0 1.0 39 ------- null}
- -t 1.17655751348216 -s 0 -d 1 -p poisson -e 1500 -c 1 -i 41 -a 1 -x {0.0 1.0 41 ------- null}
h -t 1.17655751348216 -s 0 -d 1 -p poisson -e 1500 -c 1 -i 41 -a 1 -x {0.0 1.0 -1 ------- null}
+ -t 1.18370313059628 -s 0 -d 1 -p poisson -e 1500 -c 1 -i 44 -a 1 -x {0.0 1.0 44 ------- null}
r -t 1.18655751348216 -s 0 -d 1 -p poisson -e 1500 -c 1 -i 40 -a 1 -x {0.0 1.0 40 ------- null}
- -t 1.18855751348216 -s 0 -d 1 -p poisson -e 1500 -c 1 -i 42 -a 1 -x {0.0 1.0 42 ------- null}
h -t 1.18855751348216 -s 0 -d 1 -p poisson -e 1500 -c 1 -i 42 -a 1 -x {0.0 1.0 -1 ------- null}
r -t 1.19855751348216 -s 0 -d 1 -p poisson -e 1500 -c 1 -i 41 -a 1 -x {0.0 1.0 41 ------- null}
- -t 1.20055751348216 -s 0 -d 1 -p poisson -e 1500 -c 1 -i 43 -a 1 -x {0.0 1.0 43 ------- null}
h -t 1.20055751348216 -s 0 -d 1 -p poisson -e 1500 -c 1 -i 43 -a 1 -x {0.0 1.0 -1 ------- null}
r -t 1.21055751348216 -s 0 -d 1 -p poisson -e 1500 -c 1 -i 42 -a 1 -x {0.0 1.0 42 ------- null}
- -t 1.21255751348216 -s 0 -d 1 -p poisson -e 1500 -c 1 -i 44 -a 1 -x {0.0 1.0 44 ------- null}
h -t 1.21255751348216 -s 0 -d 1 -p poisson -e 1500 -c 1 -i 44 -a 1 -x {0.0 1.0 -1 ------- null}
r -t 1.22255751348216 -s 0 -d 1 -p poisson -e 1500 -c 1 -i 43 -a 1 -x {0.0 1.0 43 ------- null}
r -t 1.23455751348216 -s 0 -d 1 -p poisson -e 1500 -c 1 -i 44 -a 1 -x {0.0 1.0 44 ------- null}
+ -t 1.24089181333951 -s 0 -d 1 -p poisson -e 1500 -c 1 -i 45 -a 1 -x {0.0 1.0 45 ------- null}
- -t 1.24089181333951 -s 0 -d 1 -p poisson -e 1500 -c 1 -i 45 -a 1 -x {0.0 1.0 45 ------- null}
h -t 1.24089181333951 -s 0 -d 1 -p poisson -e 1500 -c 1 -i 45 -a 1 -x {0.0 1.0 -1 ------- null}
+ -t 1.24744947032397 -s 0 -d 1 -p poisson -e 1500 -c 1 -i 46 -a 1 -x {0.0 1.0 46 ------- null}
- -t 1.25289181333951 -s 0 -d 1 -p poisson -e 1500 -c 1 -i 46 -a 1 -x {0.0 1.0 46 ------- null}
h -t 1.25289181333951 -s 0 -d 1 -p poisson -e 1500 -c 1 -i 46 -a 1 -x {0.0 1.0 -1 ------- null}
+ -t 1.26123871223925 -s 0 -d 1 -p poisson -e 1500 -c 1 -i 47 -a 1 -x {0.0 1.0 47 ------- null}
r -t 1.26289181333951 -s 0 -d 1 -p poisson -e 1500 -c 1 -i 45 -a 1 -x {0.0 1.0 45 ------- null}
- -t 1.26489181333951 -s 0 -d 1 -p poisson -e 1500 -c 1 -i 47 -a 1 -x {0.0 1.0 47 ------- null}
h -t 1.26489181333951 -s 0 -d 1 -p poisson -e 1500 -c 1 -i 47 -a 1 -x {0.0 1.0 -1 ------- null}
r -t 1.27489181333951 -s 0 -d 1 -p poisson -e 1500 -c 1 -i 46 -a 1 -x {0.0 1.0 46 ------- null}
r -t 1.28689181333951 -s 0 -d 1 -p poisson -e 1500 -c 1 -i 47 -a 1 -x {0.0 1.0 47 ------- null}
+ -t 1.2876984576866 -s 0 -d 1 -p poisson -e 1500 -c 1 -i 48 -a 1 -x {0.0 1.0 48 ------- null}
- -t 1.2876984576866 -s 0 -d 1 -p poisson -e 1500 -c 1 -i 48 -a 1 -x {0.0 1.0 48 ------- null}
h -t 1.2876984576866 -s 0 -d 1 -p poisson -e 1500 -c 1 -i 48 -a 1 -x {0.0 1.0 -1 ------- null}
+ -t 1.29278309225071 -s 0 -d 1 -p poisson -e 1500 -c 1 -i 49 -a 1 -x {0.0 1.0 49 ------- null}
- -t 1.2996984576866 -s 0 -d 1 -p poisson -e 1500 -c 1 -i 49 -a 1 -x {0.0 1.0 49 ------- null}
h -t 1.2996984576866 -s 0 -d 1 -p poisson -e 1500 -c 1 -i 49 -a 1 -x {0.0 1.0 -1 ------- null}
r -t 1.3096984576866 -s 0 -d 1 -p poisson -e 1500 -c 1 -i 48 -a 1 -x {0.0 1.0 48 ------- null}
+ -t 1.30994566347415 -s 0 -d 1 -p poisson -e 1500 -c 1 -i 50 -a 1 -x {0.0 1.0 50 ------- null}
- -t 1.3116984576866 -s 0 -d 1 -p poisson -e 1500 -c 1 -i 50 -a 1 -x {0.0 1.0 50 ------- null}
h -t 1.3116984576866 -s 0 -d 1 -p poisson -e 1500 -c 1 -i 50 -a 1 -x {0.0 1.0 -1 ------- null}
+ -t 1.31447499568308 -s 0 -d 1 -p poisson -e 1500 -c 1 -i 51 -a 1 -x {0.0 1.0 51 ------- null}
r -t 1.3216984576866 -s 0 -d 1 -p poisson -e 1500 -c 1 -i 49 -a 1 -x {0.0 1.0 49 ------- null}
+ -t 1.32214610562553 -s 0 -d 1 -p poisson -e 1500 -c 1 -i 52 -a 1 -x {0.0 1.0 52 ------- null}
- -t 1.3236984576866 -s 0 -d 1 -p poisson -e 1500 -c 1 -i 51 -a 1 -x {0.0 1.0 51 ------- null}
h -t 1.3236984576866 -s 0 -d 1 -p poisson -e 1500 -c 1 -i 51 -a 1 -x {0.0 1.0 -1 ------- null}
+ -t 1.32380893908669 -s 0 -d 1 -p poisson -e 1500 -c 1 -i 53 -a 1 -x {0.0 1.0 53 ------- null}
r -t 1.3336984576866 -s 0 -d 1 -p poisson -e 1500 -c 1 -i 50 -a 1 -x {0.0 1.0 50 ------- null}
- -t 1.3356984576866 -s 0 -d 1 -p poisson -e 1500 -c 1 -i 52 -a 1 -x {0.0 1.0 52 ------- null}
h -t 1.3356984576866 -s 0 -d 1 -p poisson -e 1500 -c 1 -i 52 -a 1 -x {0.0 1.0 -1 ------- null}
+ -t 1.3407362931228 -s 0 -d 1 -p poisson -e 1500 -c 1 -i 54 -a 1 -x {0.0 1.0 54 ------- null}
r -t 1.3456984576866 -s 0 -d 1 -p poisson -e 1500 -c 1 -i 51 -a 1 -x {0.0 1.0 51 ------- null}
- -t 1.3476984576866 -s 0 -d 1 -p poisson -e 1500 -c 1 -i 53 -a 1 -x {0.0 1.0 53 ------- null}
h -t 1.3476984576866 -s 0 -d 1 -p poisson -e 1500 -c 1 -i 53 -a 1 -x {0.0 1.0 -1 ------- null}
+ -t 1.34817725417704 -s 0 -d 1 -p poisson -e 1500 -c 1 -i 55 -a 1 -x {0.0 1.0 55 ------- null}
r -t 1.3576984576866 -s 0 -d 1 -p poisson -e 1500 -c 1 -i 52 -a 1 -x {0.0 1.0 52 ------- null}
+ -t 1.35896525785067 -s 0 -d 1 -p poisson -e 1500 -c 1 -i 56 -a 1 -x {0.0 1.0 56 ------- null}
- -t 1.3596984576866 -s 0 -d 1 -p poisson -e 1500 -c 1 -i 54 -a 1 -x {0.0 1.0 54 ------- null}
h -t 1.3596984576866 -s 0 -d 1 -p poisson -e 1500 -c 1 -i 54 -a 1 -x {0.0 1.0 -1 ------- null}
r -t 1.3696984576866 -s 0 -d 1 -p poisson -e 1500 -c 1 -i 53 -a 1 -x {0.0 1.0 53 ------- null}
- -t 1.3716984576866 -s 0 -d 1 -p poisson -e 1500 -c 1 -i 55 -a 1 -x {0.0 1.0 55 ------- null}
h -t 1.3716984576866 -s 0 -d 1 -p poisson -e 1500 -c 1 -i 55 -a 1 -x {0.0 1.0 -1 ------- null}
r -t 1.3816984576866 -s 0 -d 1 -p poisson -e 1500 -c 1 -i 54 -a 1 -x {0.0 1.0 54 ------- null}
- -t 1.3836984576866 -s 0 -d 1 -p poisson -e 1500 -c 1 -i 56 -a 1 -x {0.0 1.0 56 ------- null}
h -t 1.3836984576866 -s 0 -d 1 -p poisson -e 1500 -c 1 -i 56 -a 1 -x {0.0 1.0 -1 ------- null}
r -t 1.3936984576866 -s 0 -d 1 -p poisson -e 1500 -c 1 -i 55 -a 1 -x {0.0 1.0 55 ------- null}
+ -t 1.40433134058189 -s 0 -d 1 -p poisson -e 1500 -c 1 -i 57 -a 1 -x {0.0 1.0 57 ------- null}
- -t 1.40433134058189 -s 0 -d 1 -p poisson -e 1500 -c 1 -i 57 -a 1 -x {0.0 1.0 57 ------- null}
h -t 1.40433134058189 -s 0 -d 1 -p poisson -e 1500 -c 1 -i 57 -a 1 -x {0.0 1.0 -1 ------- null}
r -t 1.4056984576866 -s 0 -d 1 -p poisson -e 1500 -c 1 -i 56 -a 1 -x {0.0 1.0 56 ------- null}
+ -t 1.41843861840613 -s 0 -d 1 -p poisson -e 1500 -c 1 -i 58 -a 1 -x {0.0 1.0 58 ------- null}
- -t 1.41843861840613 -s 0 -d 1 -p poisson -e 1500 -c 1 -i 58 -a 1 -x {0.0 1.0 58 ------- null}
h -t 1.41843861840613 -s 0 -d 1 -p poisson -e 1500 -c 1 -i 58 -a 1 -x {0.0 1.0 -1 ------- null}
r -t 1.42633134058189 -s 0 -d 1 -p poisson -e 1500 -c 1 -i 57 -a 1 -x {0.0 1.0 57 ------- null}
+ -t 1.43967050094655 -s 0 -d 1 -p poisson -e 1500 -c 1 -i 59 -a 1 -x {0.0 1.0 59 ------- null}
- -t 1.43967050094655 -s 0 -d 1 -p poisson -e 1500 -c 1 -i 59 -a 1 -x {0.0 1.0 59 ------- null}
h -t 1.43967050094655 -s 0 -d 1 -p poisson -e 1500 -c 1 -i 59 -a 1 -x {0.0 1.0 -1 ------- null}
r -t 1.44043861840613 -s 0 -d 1 -p poisson -e 1500 -c 1 -i 58 -a 1 -x {0.0 1.0 58 ------- null}
+ -t 1.44272845451953 -s 0 -d 1 -p poisson -e 1500 -c 1 -i 60 -a 1 -x {0.0 1.0 60 ------- null}
+ -t 1.44341877413169 -s 0 -d 1 -p poisson -e 1500 -c 1 -i 61 -a 1 -x {0.0 1.0 61 ------- null}
+ -t 1.44667607839583 -s 0 -d 1 -p poisson -e 1500 -c 1 -i 62 -a 1 -x {0.0 1.0 62 ------- null}
- -t 1.45167050094655 -s 0 -d 1 -p poisson -e 1500 -c 1 -i 60 -a 1 -x {0.0 1.0 60 ------- null}
h -t 1.45167050094655 -s 0 -d 1 -p poisson -e 1500 -c 1 -i 60 -a 1 -x {0.0 1.0 -1 ------- null}
r -t 1.46167050094655 -s 0 -d 1 -p poisson -e 1500 -c 1 -i 59 -a 1 -x {0.0 1.0 59 ------- null}
- -t 1.46367050094655 -s 0 -d 1 -p poisson -e 1500 -c 1 -i 61 -a 1 -x {0.0 1.0 61 ------- null}
h -t 1.46367050094655 -s 0 -d 1 -p poisson -e 1500 -c 1 -i 61 -a 1 -x {0.0 1.0 -1 ------- null}
+ -t 1.46658751669633 -s 0 -d 1 -p poisson -e 1500 -c 1 -i 63 -a 1 -x {0.0 1.0 63 ------- null}
+ -t 1.4711845740669 -s 0 -d 1 -p poisson -e 1500 -c 1 -i 64 -a 1 -x {0.0 1.0 64 ------- null}
r -t 1.47367050094655 -s 0 -d 1 -p poisson -e 1500 -c 1 -i 60 -a 1 -x {0.0 1.0 60 ------- null}
- -t 1.47567050094655 -s 0 -d 1 -p poisson -e 1500 -c 1 -i 62 -a 1 -x {0.0 1.0 62 ------- null}
h -t 1.47567050094655 -s 0 -d 1 -p poisson -e 1500 -c 1 -i 62 -a 1 -x {0.0 1.0 -1 ------- null}
r -t 1.48567050094655 -s 0 -d 1 -p poisson -e 1500 -c 1 -i 61 -a 1 -x {0.0 1.0 61 ------- null}
- -t 1.48767050094655 -s 0 -d 1 -p poisson -e 1500 -c 1 -i 63 -a 1 -x {0.0 1.0 63 ------- null}
h -t 1.48767050094655 -s 0 -d 1 -p poisson -e 1500 -c 1 -i 63 -a 1 -x {0.0 1.0 -1 ------- null}
+ -t 1.49293477644712 -s 0 -d 1 -p poisson -e 1500 -c 1 -i 65 -a 1 -x {0.0 1.0 65 ------- null}
+ -t 1.49324154479927 -s 0 -d 1 -p poisson -e 1500 -c 1 -i 66 -a 1 -x {0.0 1.0 66 ------- null}
r -t 1.49767050094655 -s 0 -d 1 -p poisson -e 1500 -c 1 -i 62 -a 1 -x {0.0 1.0 62 ------- null}
- -t 1.49967050094655 -s 0 -d 1 -p poisson -e 1500 -c 1 -i 64 -a 1 -x {0.0 1.0 64 ------- null}
h -t 1.49967050094655 -s 0 -d 1 -p poisson -e 1500 -c 1 -i 64 -a 1 -x {0.0 1.0 -1 ------- null}
r -t 1.50967050094655 -s 0 -d 1 -p poisson -e 1500 -c 1 -i 63 -a 1 -x {0.0 1.0 63 ------- null}
- -t 1.51167050094655 -s 0 -d 1 -p poisson -e 1500 -c 1 -i 65 -a 1 -x {0.0 1.0 65 ------- null}
h -t 1.51167050094655 -s 0 -d 1 -p poisson -e 1500 -c 1 -i 65 -a 1 -x {0.0 1.0 -1 ------- null}
r -t 1.52167050094655 -s 0 -d 1 -p poisson -e 1500 -c 1 -i 64 -a 1 -x {0.0 1.0 64 ------- null}
+ -t 1.52346867686945 -s 0 -d 1 -p poisson -e 1500 -c 1 -i 67 -a 1 -x {0.0 1.0 67 ------- null}
- -t 1.52367050094655 -s 0 -d 1 -p poisson -e 1500 -c 1 -i 66 -a 1 -x {0.0 1.0 66 ------- null}
h -t 1.52367050094655 -s 0 -d 1 -p poisson -e 1500 -c 1 -i 66 -a 1 -x {0.0 1.0 -1 ------- null}
+ -t 1.53243510675341 -s 0 -d 1 -p poisson -e 1500 -c 1 -i 68 -a 1 -x {0.0 1.0 68 ------- null}
r -t 1.53367050094655 -s 0 -d 1 -p poisson -e 1500 -c 1 -i 65 -a 1 -x {0.0 1.0 65 ------- null}
- -t 1.53567050094655 -s 0 -d 1 -p poisson -e 1500 -c 1 -i 67 -a 1 -x {0.0 1.0 67 ------- null}
h -t 1.53567050094655 -s 0 -d 1 -p poisson -e 1500 -c 1 -i 67 -a 1 -x {0.0 1.0 -1 ------- null}
r -t 1.54567050094655 -s 0 -d 1 -p poisson -e 1500 -c 1 -i 66 -a 1 -x {0.0 1.0 66 ------- null}
- -t 1.54767050094655 -s 0 -d 1 -p poisson -e 1500 -c 1 -i 68 -a 1 -x {0.0 1.0 68 ------- null}
h -t 1.54767050094655 -s 0 -d 1 -p poisson -e 1500 -c 1 -i 68 -a 1 -x {0.0 1.0 -1 ------- null}
r -t 1.55767050094655 -s 0 -d 1 -p poisson -e 1500 -c 1 -i 67 -a 1 -x {0.0 1.0 67 ------- null}
r -t 1.56967050094655 -s 0 -d 1 -p poisson -e 1500 -c 1 -i 68 -a 1 -x {0.0 1.0 68 ------- null}
+ -t 1.57024227806538 -s 0 -d 1 -p poisson -e 1500 -c 1 -i 69 -a 1 -x {0.0 1.0 69 ------- null}
- -t 1.57024227806538 -s 0 -d 1 -p poisson -e 1500 -c 1 -i 69 -a 1 -x {0.0 1.0 69 ------- null}
h -t 1.57024227806538 -s 0 -d 1 -p poisson -e 1500 -c 1 -i 69 -a 1 -x {0.0 1.0 -1 ------- null}
+ -t 1.5720726423097 -s 0 -d 1 -p poisson -e 1500 -c 1 -i 70 -a 1 -x {0.0 1.0 70 ------- null}
+ -t 1.58002326387089 -s 0 -d 1 -p poisson -e 1500 -c 1 -i 71 -a 1 -x {0.0 1.0 71 ------- null}
- -t 1.58224227806538 -s 0 -d 1 -p poisson -e 1500 -c 1 -i 70 -a 1 -x {0.0 1.0 70 ------- null}
h -t 1.58224227806538 -s 0 -d 1 -p poisson -e 1500 -c 1 -i 70 -a 1 -x {0.0 1.0 -1 ------- null}
+ -t 1.58391076879452 -s 0 -d 1 -p poisson -e 1500 -c 1 -i 72 -a 1 -x {0.0 1.0 72 ------- null}
r -t 1.59224227806538 -s 0 -d 1 -p poisson -e 1500 -c 1 -i 69 -a 1 -x {0.0 1.0 69 ------- null}
- -t 1.59424227806538 -s 0 -d 1 -p poisson -e 1500 -c 1 -i 71 -a 1 -x {0.0 1.0 71 ------- null}
h -t 1.59424227806538 -s 0 -d 1 -p poisson -e 1500 -c 1 -i 71 -a 1 -x {0.0 1.0 -1 ------- null}
+ -t 1.59483203063699 -s 0 -d 1 -p poisson -e 1500 -c 1 -i 73 -a 1 -x {0.0 1.0 73 ------- null}
r -t 1.60424227806538 -s 0 -d 1 -p poisson -e 1500 -c 1 -i 70 -a 1 -x {0.0 1.0 70 ------- null}
- -t 1.60624227806538 -s 0 -d 1 -p poisson -e 1500 -c 1 -i 72 -a 1 -x {0.0 1.0 72 ------- null}
h -t 1.60624227806538 -s 0 -d 1 -p poisson -e 1500 -c 1 -i 72 -a 1 -x {0.0 1.0 -1 ------- null}
r -t 1.61624227806538 -s 0 -d 1 -p poisson -e 1500 -c 1 -i 71 -a 1 -x {0.0 1.0 71 ------- null}
- -t 1.61824227806538 -s 0 -d 1 -p poisson -e 1500 -c 1 -i 73 -a 1 -x {0.0 1.0 73 ------- null}
h -t 1.61824227806538 -s 0 -d 1 -p poisson -e 1500 -c 1 -i 73 -a 1 -x {0.0 1.0 -1 ------- null}
+ -t 1.62550335691759 -s 0 -d 1 -p poisson -e 1500 -c 1 -i 74 -a 1 -x {0.0 1.0 74 ------- null}
+ -t 1.62809666357216 -s 0 -d 1 -p poisson -e 1500 -c 1 -i 75 -a 1 -x {0.0 1.0 75 ------- null}
r -t 1.62824227806538 -s 0 -d 1 -p poisson -e 1500 -c 1 -i 72 -a 1 -x {0.0 1.0 72 ------- null}
+ -t 1.62938762942043 -s 0 -d 1 -p poisson -e 1500 -c 1 -i 76 -a 1 -x {0.0 1.0 76 ------- null}
- -t 1.63024227806538 -s 0 -d 1 -p poisson -e 1500 -c 1 -i 74 -a 1 -x {0.0 1.0 74 ------- null}
h -t 1.63024227806538 -s 0 -d 1 -p poisson -e 1500 -c 1 -i 74 -a 1 -x {0.0 1.0 -1 ------- null}
+ -t 1.63339685283644 -s 0 -d 1 -p poisson -e 1500 -c 1 -i 77 -a 1 -x {0.0 1.0 77 ------- null}
+ -t 1.63508867218504 -s 0 -d 1 -p poisson -e 1500 -c 1 -i 78 -a 1 -x {0.0 1.0 78 ------- null}
r -t 1.64024227806538 -s 0 -d 1 -p poisson -e 1500 -c 1 -i 73 -a 1 -x {0.0 1.0 73 ------- null}
+ -t 1.64183701191834 -s 0 -d 1 -p poisson -e 1500 -c 1 -i 79 -a 1 -x {0.0 1.0 79 ------- null}
- -t 1.64224227806538 -s 0 -d 1 -p poisson -e 1500 -c 1 -i 75 -a 1 -x {0.0 1.0 75 ------- null}
h -t 1.64224227806538 -s 0 -d 1 -p poisson -e 1500 -c 1 -i 75 -a 1 -x {0.0 1.0 -1 ------- null}
+ -t 1.64571164588875 -s 0 -d 1 -p poisson -e 1500 -c 1 -i 80 -a 1 -x {0.0 1.0 80 ------- null}
+ -t 1.64849857489521 -s 0 -d 1 -p poisson -e 1500 -c 1 -i 81 -a 1 -x {0.0 1.0 81 ------- null}
r -t 1.65224227806538 -s 0 -d 1 -p poisson -e 1500 -c 1 -i 74 -a 1 -x {0.0 1.0 74 ------- null}
- -t 1.65424227806538 -s 0 -d 1 -p poisson -e 1500 -c 1 -i 76 -a 1 -x {0.0 1.0 76 ------- null}