+ 0.5 0 1 cbr 1000 ------- 2 0.0 1.0 0 0
- 0.5 0 1 cbr 1000 ------- 2 0.0 1.0 0 0
+ 0.5 0 1 cbr 500 ------- 2 0.0 1.0 1 1
+ 0.505 0 1 cbr 1000 ------- 2 0.0 1.0 2 2
+ 0.505 0 1 cbr 500 ------- 2 0.0 1.0 3 3
- 0.508 0 1 cbr 500 ------- 2 0.0 1.0 1 1
+ 0.51 0 1 cbr 1000 ------- 2 0.0 1.0 4 4
+ 0.51 0 1 cbr 500 ------- 2 0.0 1.0 5 5
- 0.512 0 1 cbr 1000 ------- 2 0.0 1.0 2 2
+ 0.515 0 1 cbr 1000 ------- 2 0.0 1.0 6 6
+ 0.515 0 1 cbr 500 ------- 2 0.0 1.0 7 7
r 0.518 0 1 cbr 1000 ------- 2 0.0 1.0 0 0
- 0.52 0 1 cbr 500 ------- 2 0.0 1.0 3 3
+ 0.52 0 1 cbr 1000 ------- 2 0.0 1.0 8 8
+ 0.52 0 1 cbr 500 ------- 2 0.0 1.0 9 9
r 0.522 0 1 cbr 500 ------- 2 0.0 1.0 1 1
- 0.524 0 1 cbr 1000 ------- 2 0.0 1.0 4 4
+ 0.525 0 1 cbr 1000 ------- 2 0.0 1.0 10 10
+ 0.525 0 1 cbr 500 ------- 2 0.0 1.0 11 11
r 0.53 0 1 cbr 1000 ------- 2 0.0 1.0 2 2
+ 0.53 0 1 cbr 1000 ------- 2 0.0 1.0 12 12
+ 0.53 0 1 cbr 500 ------- 2 0.0 1.0 13 13
- 0.532 0 1 cbr 500 ------- 2 0.0 1.0 5 5
r 0.534 0 1 cbr 500 ------- 2 0.0 1.0 3 3
+ 0.535 0 1 cbr 1000 ------- 2 0.0 1.0 14 14
+ 0.535 0 1 cbr 500 ------- 2 0.0 1.0 15 15
- 0.536 0 1 cbr 1000 ------- 2 0.0 1.0 6 6
+ 0.54 0 1 cbr 1000 ------- 2 0.0 1.0 16 16
+ 0.54 0 1 cbr 500 ------- 2 0.0 1.0 17 17
r 0.542 0 1 cbr 1000 ------- 2 0.0 1.0 4 4
- 0.544 0 1 cbr 500 ------- 2 0.0 1.0 7 7
+ 0.545 0 1 cbr 1000 ------- 2 0.0 1.0 18 18
+ 0.545 0 1 cbr 500 ------- 2 0.0 1.0 19 19
r 0.546 0 1 cbr 500 ------- 2 0.0 1.0 5 5
- 0.548 0 1 cbr 1000 ------- 2 0.0 1.0 8 8
+ 0.55 0 1 cbr 1000 ------- 2 0.0 1.0 20 20
+ 0.55 0 1 cbr 500 ------- 2 0.0 1.0 21 21
r 0.554 0 1 cbr 1000 ------- 2 0.0 1.0 6 6
+ 0.555 0 1 cbr 1000 ------- 2 0.0 1.0 22 22
+ 0.555 0 1 cbr 500 ------- 2 0.0 1.0 23 23
- 0.556 0 1 cbr 500 ------- 2 0.0 1.0 9 9
r 0.558 0 1 cbr 500 ------- 2 0.0 1.0 7 7
+ 0.56 0 1 cbr 1000 ------- 2 0.0 1.0 24 24
+ 0.56 0 1 cbr 500 ------- 2 0.0 1.0 25 25
- 0.56 0 1 cbr 1000 ------- 2 0.0 1.0 10 10
+ 0.565 0 1 cbr 1000 ------- 2 0.0 1.0 26 26
+ 0.565 0 1 cbr 500 ------- 2 0.0 1.0 27 27
r 0.566 0 1 cbr 1000 ------- 2 0.0 1.0 8 8
- 0.568 0 1 cbr 500 ------- 2 0.0 1.0 11 11
r 0.57 0 1 cbr 500 ------- 2 0.0 1.0 9 9
+ 0.57 0 1 cbr 1000 ------- 2 0.0 1.0 28 28
+ 0.57 0 1 cbr 500 ------- 2 0.0 1.0 29 29
- 0.572 0 1 cbr 1000 ------- 2 0.0 1.0 12 12
+ 0.575 0 1 cbr 1000 ------- 2 0.0 1.0 30 30
+ 0.575 0 1 cbr 500 ------- 2 0.0 1.0 31 31
r 0.578 0 1 cbr 1000 ------- 2 0.0 1.0 10 10
- 0.58 0 1 cbr 500 ------- 2 0.0 1.0 13 13
+ 0.58 0 1 cbr 1000 ------- 2 0.0 1.0 32 32
+ 0.58 0 1 cbr 500 ------- 2 0.0 1.0 33 33
r 0.582 0 1 cbr 500 ------- 2 0.0 1.0 11 11
- 0.584 0 1 cbr 1000 ------- 2 0.0 1.0 14 14
+ 0.585 0 1 cbr 1000 ------- 2 0.0 1.0 34 34
+ 0.585 0 1 cbr 500 ------- 2 0.0 1.0 35 35
r 0.59 0 1 cbr 1000 ------- 2 0.0 1.0 12 12
+ 0.59 0 1 cbr 1000 ------- 2 0.0 1.0 36 36
+ 0.59 0 1 cbr 500 ------- 2 0.0 1.0 37 37
- 0.592 0 1 cbr 500 ------- 2 0.0 1.0 15 15
r 0.594 0 1 cbr 500 ------- 2 0.0 1.0 13 13
+ 0.595 0 1 cbr 1000 ------- 2 0.0 1.0 38 38
+ 0.595 0 1 cbr 500 ------- 2 0.0 1.0 39 39
- 0.596 0 1 cbr 1000 ------- 2 0.0 1.0 16 16
+ 0.6 0 1 cbr 1000 ------- 2 0.0 1.0 40 40
+ 0.6 0 1 cbr 500 ------- 2 0.0 1.0 41 41
r 0.602 0 1 cbr 1000 ------- 2 0.0 1.0 14 14
- 0.604 0 1 cbr 500 ------- 2 0.0 1.0 17 17
+ 0.605 0 1 cbr 1000 ------- 2 0.0 1.0 42 42
+ 0.605 0 1 cbr 500 ------- 2 0.0 1.0 43 43
r 0.606 0 1 cbr 500 ------- 2 0.0 1.0 15 15
- 0.608 0 1 cbr 1000 ------- 2 0.0 1.0 18 18
+ 0.61 0 1 cbr 1000 ------- 2 0.0 1.0 44 44
+ 0.61 0 1 cbr 500 ------- 2 0.0 1.0 45 45
r 0.614 0 1 cbr 1000 ------- 2 0.0 1.0 16 16
+ 0.615 0 1 cbr 1000 ------- 2 0.0 1.0 46 46
+ 0.615 0 1 cbr 500 ------- 2 0.0 1.0 47 47
- 0.616 0 1 cbr 500 ------- 2 0.0 1.0 19 19
r 0.618 0 1 cbr 500 ------- 2 0.0 1.0 17 17
+ 0.62 0 1 cbr 1000 ------- 2 0.0 1.0 48 48
+ 0.62 0 1 cbr 500 ------- 2 0.0 1.0 49 49
- 0.62 0 1 cbr 1000 ------- 2 0.0 1.0 20 20
+ 0.625 0 1 cbr 1000 ------- 2 0.0 1.0 50 50
+ 0.625 0 1 cbr 500 ------- 2 0.0 1.0 51 51
r 0.626 0 1 cbr 1000 ------- 2 0.0 1.0 18 18
- 0.628 0 1 cbr 500 ------- 2 0.0 1.0 21 21
r 0.63 0 1 cbr 500 ------- 2 0.0 1.0 19 19
+ 0.63 0 1 cbr 1000 ------- 2 0.0 1.0 52 52
+ 0.63 0 1 cbr 500 ------- 2 0.0 1.0 53 53
- 0.632 0 1 cbr 1000 ------- 2 0.0 1.0 22 22
+ 0.635 0 1 cbr 1000 ------- 2 0.0 1.0 54 54
+ 0.635 0 1 cbr 500 ------- 2 0.0 1.0 55 55
r 0.638 0 1 cbr 1000 ------- 2 0.0 1.0 20 20
- 0.64 0 1 cbr 500 ------- 2 0.0 1.0 23 23
+ 0.64 0 1 cbr 1000 ------- 2 0.0 1.0 56 56
+ 0.64 0 1 cbr 500 ------- 2 0.0 1.0 57 57
r 0.642 0 1 cbr 500 ------- 2 0.0 1.0 21 21
- 0.644 0 1 cbr 1000 ------- 2 0.0 1.0 24 24
+ 0.645 0 1 cbr 1000 ------- 2 0.0 1.0 58 58
+ 0.645 0 1 cbr 500 ------- 2 0.0 1.0 59 59
r 0.65 0 1 cbr 1000 ------- 2 0.0 1.0 22 22
+ 0.65 0 1 cbr 1000 ------- 2 0.0 1.0 60 60
+ 0.65 0 1 cbr 500 ------- 2 0.0 1.0 61 61
- 0.652 0 1 cbr 500 ------- 2 0.0 1.0 25 25
r 0.654 0 1 cbr 500 ------- 2 0.0 1.0 23 23
+ 0.655 0 1 cbr 1000 ------- 2 0.0 1.0 62 62
+ 0.655 0 1 cbr 500 ------- 2 0.0 1.0 63 63
- 0.656 0 1 cbr 1000 ------- 2 0.0 1.0 26 26
+ 0.66 0 1 cbr 1000 ------- 2 0.0 1.0 64 64
+ 0.66 0 1 cbr 500 ------- 2 0.0 1.0 65 65
r 0.662 0 1 cbr 1000 ------- 2 0.0 1.0 24 24
- 0.664 0 1 cbr 500 ------- 2 0.0 1.0 27 27
+ 0.665 0 1 cbr 1000 ------- 2 0.0 1.0 66 66
+ 0.665 0 1 cbr 500 ------- 2 0.0 1.0 67 67
r 0.666 0 1 cbr 500 ------- 2 0.0 1.0 25 25
- 0.668 0 1 cbr 1000 ------- 2 0.0 1.0 28 28
+ 0.67 0 1 cbr 1000 ------- 2 0.0 1.0 68 68
+ 0.67 0 1 cbr 500 ------- 2 0.0 1.0 69 69
r 0.674 0 1 cbr 1000 ------- 2 0.0 1.0 26 26
+ 0.675 0 1 cbr 1000 ------- 2 0.0 1.0 70 70
+ 0.675 0 1 cbr 500 ------- 2 0.0 1.0 71 71
- 0.676 0 1 cbr 500 ------- 2 0.0 1.0 29 29
r 0.678 0 1 cbr 500 ------- 2 0.0 1.0 27 27
+ 0.68 0 1 cbr 1000 ------- 2 0.0 1.0 72 72
+ 0.68 0 1 cbr 500 ------- 2 0.0 1.0 73 73
- 0.68 0 1 cbr 1000 ------- 2 0.0 1.0 30 30
+ 0.685 0 1 cbr 1000 ------- 2 0.0 1.0 74 74
+ 0.685 0 1 cbr 500 ------- 2 0.0 1.0 75 75
r 0.686 0 1 cbr 1000 ------- 2 0.0 1.0 28 28
- 0.688 0 1 cbr 500 ------- 2 0.0 1.0 31 31
r 0.69 0 1 cbr 500 ------- 2 0.0 1.0 29 29
+ 0.69 0 1 cbr 1000 ------- 2 0.0 1.0 76 76
+ 0.69 0 1 cbr 500 ------- 2 0.0 1.0 77 77
- 0.692 0 1 cbr 1000 ------- 2 0.0 1.0 32 32
+ 0.695 0 1 cbr 1000 ------- 2 0.0 1.0 78 78
+ 0.695 0 1 cbr 500 ------- 2 0.0 1.0 79 79
r 0.698 0 1 cbr 1000 ------- 2 0.0 1.0 30 30
- 0.7 0 1 cbr 500 ------- 2 0.0 1.0 33 33
+ 0.7 0 1 cbr 1000 ------- 2 0.0 1.0 80 80
+ 0.7 0 1 cbr 500 ------- 2 0.0 1.0 81 81
r 0.702 0 1 cbr 500 ------- 2 0.0 1.0 31 31
- 0.704 0 1 cbr 1000 ------- 2 0.0 1.0 34 34
+ 0.705 0 1 cbr 1000 ------- 2 0.0 1.0 82 82
+ 0.705 0 1 cbr 500 ------- 2 0.0 1.0 83 83
r 0.71 0 1 cbr 1000 ------- 2 0.0 1.0 32 32
+ 0.71 0 1 cbr 1000 ------- 2 0.0 1.0 84 84
d 0.71 0 1 cbr 1000 ------- 2 0.0 1.0 84 84
+ 0.71 0 1 cbr 500 ------- 2 0.0 1.0 85 85
d 0.71 0 1 cbr 500 ------- 2 0.0 1.0 85 85
- 0.712 0 1 cbr 500 ------- 2 0.0 1.0 35 35
r 0.714 0 1 cbr 500 ------- 2 0.0 1.0 33 33
+ 0.715 0 1 cbr 1000 ------- 2 0.0 1.0 86 86
+ 0.715 0 1 cbr 500 ------- 2 0.0 1.0 87 87
d 0.715 0 1 cbr 500 ------- 2 0.0 1.0 87 87
- 0.716 0 1 cbr 1000 ------- 2 0.0 1.0 36 36
+ 0.72 0 1 cbr 1000 ------- 2 0.0 1.0 88 88
+ 0.72 0 1 cbr 500 ------- 2 0.0 1.0 89 89
d 0.72 0 1 cbr 500 ------- 2 0.0 1.0 89 89
r 0.722 0 1 cbr 1000 ------- 2 0.0 1.0 34 34
- 0.724 0 1 cbr 500 ------- 2 0.0 1.0 37 37
+ 0.725 0 1 cbr 1000 ------- 2 0.0 1.0 90 90
+ 0.725 0 1 cbr 500 ------- 2 0.0 1.0 91 91
d 0.725 0 1 cbr 500 ------- 2 0.0 1.0 91 91
r 0.726 0 1 cbr 500 ------- 2 0.0 1.0 35 35
- 0.728 0 1 cbr 1000 ------- 2 0.0 1.0 38 38
+ 0.73 0 1 cbr 1000 ------- 2 0.0 1.0 92 92
+ 0.73 0 1 cbr 500 ------- 2 0.0 1.0 93 93
d 0.73 0 1 cbr 500 ------- 2 0.0 1.0 93 93
r 0.734 0 1 cbr 1000 ------- 2 0.0 1.0 36 36
+ 0.735 0 1 cbr 1000 ------- 2 0.0 1.0 94 94
d 0.735 0 1 cbr 1000 ------- 2 0.0 1.0 94 94
+ 0.735 0 1 cbr 500 ------- 2 0.0 1.0 95 95
d 0.735 0 1 cbr 500 ------- 2 0.0 1.0 95 95
- 0.736 0 1 cbr 500 ------- 2 0.0 1.0 39 39
r 0.738 0 1 cbr 500 ------- 2 0.0 1.0 37 37
+ 0.74 0 1 cbr 1000 ------- 2 0.0 1.0 96 96
+ 0.74 0 1 cbr 500 ------- 2 0.0 1.0 97 97
d 0.74 0 1 cbr 500 ------- 2 0.0 1.0 97 97
- 0.74 0 1 cbr 1000 ------- 2 0.0 1.0 40 40
+ 0.745 0 1 cbr 1000 ------- 2 0.0 1.0 98 98
+ 0.745 0 1 cbr 500 ------- 2 0.0 1.0 99 99
d 0.745 0 1 cbr 500 ------- 2 0.0 1.0 99 99
r 0.746 0 1 cbr 1000 ------- 2 0.0 1.0 38 38
- 0.748 0 1 cbr 500 ------- 2 0.0 1.0 41 41
r 0.75 0 1 cbr 500 ------- 2 0.0 1.0 39 39
+ 0.75 0 1 cbr 1000 ------- 2 0.0 1.0 100 100
+ 0.75 0 1 cbr 500 ------- 2 0.0 1.0 101 101
d 0.75 0 1 cbr 500 ------- 2 0.0 1.0 101 101
- 0.752 0 1 cbr 1000 ------- 2 0.0 1.0 42 42
+ 0.755 0 1 cbr 1000 ------- 2 0.0 1.0 102 102
+ 0.755 0 1 cbr 500 ------- 2 0.0 1.0 103 103
d 0.755 0 1 cbr 500 ------- 2 0.0 1.0 103 103
r 0.758 0 1 cbr 1000 ------- 2 0.0 1.0 40 40
- 0.76 0 1 cbr 500 ------- 2 0.0 1.0 43 43
+ 0.76 0 1 cbr 1000 ------- 2 0.0 1.0 104 104
+ 0.76 0 1 cbr 500 ------- 2 0.0 1.0 105 105
d 0.76 0 1 cbr 500 ------- 2 0.0 1.0 105 105
r 0.762 0 1 cbr 500 ------- 2 0.0 1.0 41 41
- 0.764 0 1 cbr 1000 ------- 2 0.0 1.0 44 44
+ 0.765 0 1 cbr 1000 ------- 2 0.0 1.0 106 106
+ 0.765 0 1 cbr 500 ------- 2 0.0 1.0 107 107
d 0.765 0 1 cbr 500 ------- 2 0.0 1.0 107 107
r 0.77 0 1 cbr 1000 ------- 2 0.0 1.0 42 42
+ 0.77 0 1 cbr 1000 ------- 2 0.0 1.0 108 108
d 0.77 0 1 cbr 1000 ------- 2 0.0 1.0 108 108
+ 0.77 0 1 cbr 500 ------- 2 0.0 1.0 109 109
d 0.77 0 1 cbr 500 ------- 2 0.0 1.0 109 109
- 0.772 0 1 cbr 500 ------- 2 0.0 1.0 45 45
r 0.774 0 1 cbr 500 ------- 2 0.0 1.0 43 43
+ 0.775 0 1 cbr 1000 ------- 2 0.0 1.0 110 110
+ 0.775 0 1 cbr 500 ------- 2 0.0 1.0 111 111
d 0.775 0 1 cbr 500 ------- 2 0.0 1.0 111 111
- 0.776 0 1 cbr 1000 ------- 2 0.0 1.0 46 46
+ 0.78 0 1 cbr 1000 ------- 2 0.0 1.0 112 112
+ 0.78 0 1 cbr 500 ------- 2 0.0 1.0 113 113
d 0.78 0 1 cbr 500 ------- 2 0.0 1.0 113 113
r 0.782 0 1 cbr 1000 ------- 2 0.0 1.0 44 44
- 0.784 0 1 cbr 500 ------- 2 0.0 1.0 47 47
+ 0.785 0 1 cbr 1000 ------- 2 0.0 1.0 114 114
+ 0.785 0 1 cbr 500 ------- 2 0.0 1.0 115 115
d 0.785 0 1 cbr 500 ------- 2 0.0 1.0 115 115
r 0.786 0 1 cbr 500 ------- 2 0.0 1.0 45 45
- 0.788 0 1 cbr 1000 ------- 2 0.0 1.0 48 48
+ 0.79 0 1 cbr 1000 ------- 2 0.0 1.0 116 116
+ 0.79 0 1 cbr 500 ------- 2 0.0 1.0 117 117
d 0.79 0 1 cbr 500 ------- 2 0.0 1.0 117 117
r 0.794 0 1 cbr 1000 ------- 2 0.0 1.0 46 46
+ 0.795 0 1 cbr 1000 ------- 2 0.0 1.0 118 118
d 0.795 0 1 cbr 1000 ------- 2 0.0 1.0 118 118
+ 0.795 0 1 cbr 500 ------- 2 0.0 1.0 119 119
d 0.795 0 1 cbr 500 ------- 2 0.0 1.0 119 119
- 0.796 0 1 cbr 500 ------- 2 0.0 1.0 49 49
r 0.798 0 1 cbr 500 ------- 2 0.0 1.0 47 47
+ 0.8 0 1 cbr 1000 ------- 2 0.0 1.0 120 120
+ 0.8 0 1 cbr 500 ------- 2 0.0 1.0 121 121
d 0.8 0 1 cbr 500 ------- 2 0.0 1.0 121 121
- 0.8 0 1 cbr 1000 ------- 2 0.0 1.0 50 50
+ 0.805 0 1 cbr 1000 ------- 2 0.0 1.0 122 122
+ 0.805 0 1 cbr 500 ------- 2 0.0 1.0 123 123
d 0.805 0 1 cbr 500 ------- 2 0.0 1.0 123 123
r 0.806 0 1 cbr 1000 ------- 2 0.0 1.0 48 48
- 0.808 0 1 cbr 500 ------- 2 0.0 1.0 51 51
r 0.81 0 1 cbr 500 ------- 2 0.0 1.0 49 49
+ 0.81 0 1 cbr 1000 ------- 2 0.0 1.0 124 124
+ 0.81 0 1 cbr 500 ------- 2 0.0 1.0 125 125
d 0.81 0 1 cbr 500 ------- 2 0.0 1.0 125 125
- 0.812 0 1 cbr 1000 ------- 2 0.0 1.0 52 52
+ 0.815 0 1 cbr 1000 ------- 2 0.0 1.0 126 126
+ 0.815 0 1 cbr 500 ------- 2 0.0 1.0 127 127
d 0.815 0 1 cbr 500 ------- 2 0.0 1.0 127 127
r 0.818 0 1 cbr 1000 ------- 2 0.0 1.0 50 50
- 0.82 0 1 cbr 500 ------- 2 0.0 1.0 53 53
+ 0.82 0 1 cbr 1000 ------- 2 0.0 1.0 128 128
+ 0.82 0 1 cbr 500 ------- 2 0.0 1.0 129 129
d 0.82 0 1 cbr 500 ------- 2 0.0 1.0 129 129
r 0.822 0 1 cbr 500 ------- 2 0.0 1.0 51 51
- 0.824 0 1 cbr 1000 ------- 2 0.0 1.0 54 54
+ 0.825 0 1 cbr 1000 ------- 2 0.0 1.0 130 130
+ 0.825 0 1 cbr 500 ------- 2 0.0 1.0 131 131
d 0.825 0 1 cbr 500 ------- 2 0.0 1.0 131 131
r 0.83 0 1 cbr 1000 ------- 2 0.0 1.0 52 52
+ 0.83 0 1 cbr 1000 ------- 2 0.0 1.0 132 132
d 0.83 0 1 cbr 1000 ------- 2 0.0 1.0 132 132
+ 0.83 0 1 cbr 500 ------- 2 0.0 1.0 133 133
d 0.83 0 1 cbr 500 ------- 2 0.0 1.0 133 133
- 0.832 0 1 cbr 500 ------- 2 0.0 1.0 55 55
r 0.834 0 1 cbr 500 ------- 2 0.0 1.0 53 53
+ 0.835 0 1 cbr 1000 ------- 2 0.0 1.0 134 134
+ 0.835 0 1 cbr 500 ------- 2 0.0 1.0 135 135
d 0.835 0 1 cbr 500 ------- 2 0.0 1.0 135 135
- 0.836 0 1 cbr 1000 ------- 2 0.0 1.0 56 56
+ 0.84 0 1 cbr 1000 ------- 2 0.0 1.0 136 136
+ 0.84 0 1 cbr 500 ------- 2 0.0 1.0 137 137
d 0.84 0 1 cbr 500 ------- 2 0.0 1.0 137 137
r 0.842 0 1 cbr 1000 ------- 2 0.0 1.0 54 54
- 0.844 0 1 cbr 500 ------- 2 0.0 1.0 57 57
+ 0.845 0 1 cbr 1000 ------- 2 0.0 1.0 138 138
+ 0.845 0 1 cbr 500 ------- 2 0.0 1.0 139 139
d 0.845 0 1 cbr 500 ------- 2 0.0 1.0 139 139
r 0.846 0 1 cbr 500 ------- 2 0.0 1.0 55 55
- 0.848 0 1 cbr 1000 ------- 2 0.0 1.0 58 58
+ 0.85 0 1 cbr 1000 ------- 2 0.0 1.0 140 140
+ 0.85 0 1 cbr 500 ------- 2 0.0 1.0 141 141
d 0.85 0 1 cbr 500 ------- 2 0.0 1.0 141 141
r 0.854 0 1 cbr 1000 ------- 2 0.0 1.0 56 56
+ 0.855 0 1 cbr 1000 ------- 2 0.0 1.0 142 142
d 0.855 0 1 cbr 1000 ------- 2 0.0 1.0 142 142
+ 0.855 0 1 cbr 500 ------- 2 0.0 1.0 143 143
d 0.855 0 1 cbr 500 ------- 2 0.0 1.0 143 143
- 0.856 0 1 cbr 500 ------- 2 0.0 1.0 59 59
r 0.858 0 1 cbr 500 ------- 2 0.0 1.0 57 57
+ 0.86 0 1 cbr 1000 ------- 2 0.0 1.0 144 144
+ 0.86 0 1 cbr 500 ------- 2 0.0 1.0 145 145
d 0.86 0 1 cbr 500 ------- 2 0.0 1.0 145 145
- 0.86 0 1 cbr 1000 ------- 2 0.0 1.0 60 60
+ 0.865 0 1 cbr 1000 ------- 2 0.0 1.0 146 146
+ 0.865 0 1 cbr 500 ------- 2 0.0 1.0 147 147
d 0.865 0 1 cbr 500 ------- 2 0.0 1.0 147 147
r 0.866 0 1 cbr 1000 ------- 2 0.0 1.0 58 58
- 0.868 0 1 cbr 500 ------- 2 0.0 1.0 61 61
r 0.87 0 1 cbr 500 ------- 2 0.0 1.0 59 59
+ 0.87 0 1 cbr 1000 ------- 2 0.0 1.0 148 148
+ 0.87 0 1 cbr 500 ------- 2 0.0 1.0 149 149
d 0.87 0 1 cbr 500 ------- 2 0.0 1.0 149 149
- 0.872 0 1 cbr 1000 ------- 2 0.0 1.0 62 62
+ 0.875 0 1 cbr 1000 ------- 2 0.0 1.0 150 150
+ 0.875 0 1 cbr 500 ------- 2 0.0 1.0 151 151
d 0.875 0 1 cbr 500 ------- 2 0.0 1.0 151 151
r 0.878 0 1 cbr 1000 ------- 2 0.0 1.0 60 60
- 0.88 0 1 cbr 500 ------- 2 0.0 1.0 63 63
+ 0.88 0 1 cbr 1000 ------- 2 0.0 1.0 152 152
+ 0.88 0 1 cbr 500 ------- 2 0.0 1.0 153 153
d 0.88 0 1 cbr 500 ------- 2 0.0 1.0 153 153
r 0.882 0 1 cbr 500 ------- 2 0.0 1.0 61 61
- 0.884 0 1 cbr 1000 ------- 2 0.0 1.0 64 64
+ 0.885 0 1 cbr 1000 ------- 2 0.0 1.0 154 154
+ 0.885 0 1 cbr 500 ------- 2 0.0 1.0 155 155
d 0.885 0 1 cbr 500 ------- 2 0.0 1.0 155 155
r 0.89 0 1 cbr 1000 ------- 2 0.0 1.0 62 62
+ 0.89 0 1 cbr 1000 ------- 2 0.0 1.0 156 156
d 0.89 0 1 cbr 1000 ------- 2 0.0 1.0 156 156
+ 0.89 0 1 cbr 500 ------- 2 0.0 1.0 157 157
d 0.89 0 1 cbr 500 ------- 2 0.0 1.0 157 157
- 0.892 0 1 cbr 500 ------- 2 0.0 1.0 65 65
r 0.894 0 1 cbr 500 ------- 2 0.0 1.0 63 63
+ 0.895 0 1 cbr 1000 ------- 2 0.0 1.0 158 158
+ 0.895 0 1 cbr 500 ------- 2 0.0 1.0 159 159
d 0.895 0 1 cbr 500 ------- 2 0.0 1.0 159 159
- 0.896 0 1 cbr 1000 ------- 2 0.0 1.0 66 66
+ 0.9 0 1 cbr 1000 ------- 2 0.0 1.0 160 160
+ 0.9 0 1 cbr 500 ------- 2 0.0 1.0 161 161
d 0.9 0 1 cbr 500 ------- 2 0.0 1.0 161 161
r 0.902 0 1 cbr 1000 ------- 2 0.0 1.0 64 64
- 0.904 0 1 cbr 500 ------- 2 0.0 1.0 67 67
+ 0.905 0 1 cbr 1000 ------- 2 0.0 1.0 162 162
+ 0.905 0 1 cbr 500 ------- 2 0.0 1.0 163 163
d 0.905 0 1 cbr 500 ------- 2 0.0 1.0 163 163
r 0.906 0 1 cbr 500 ------- 2 0.0 1.0 65 65
- 0.908 0 1 cbr 1000 ------- 2 0.0 1.0 68 68
+ 0.91 0 1 cbr 1000 ------- 2 0.0 1.0 164 164
+ 0.91 0 1 cbr 500 ------- 2 0.0 1.0 165 165
d 0.91 0 1 cbr 500 ------- 2 0.0 1.0 165 165
r 0.914 0 1 cbr 1000 ------- 2 0.0 1.0 66 66
+ 0.915 0 1 cbr 1000 ------- 2 0.0 1.0 166 166
d 0.915 0 1 cbr 1000 ------- 2 0.0 1.0 166 166
+ 0.915 0 1 cbr 500 ------- 2 0.0 1.0 167 167
d 0.915 0 1 cbr 500 ------- 2 0.0 1.0 167 167
- 0.916 0 1 cbr 500 ------- 2 0.0 1.0 69 69
r 0.918 0 1 cbr 500 ------- 2 0.0 1.0 67 67
+ 0.92 0 1 cbr 1000 ------- 2 0.0 1.0 168 168
+ 0.92 0 1 cbr 500 ------- 2 0.0 1.0 169 169
d 0.92 0 1 cbr 500 ------- 2 0.0 1.0 169 169
- 0.92 0 1 cbr 1000 ------- 2 0.0 1.0 70 70
+ 0.925 0 1 cbr 1000 ------- 2 0.0 1.0 170 170
+ 0.925 0 1 cbr 500 ------- 2 0.0 1.0 171 171
d 0.925 0 1 cbr 500 ------- 2 0.0 1.0 171 171
r 0.926 0 1 cbr 1000 ------- 2 0.0 1.0 68 68
- 0.928 0 1 cbr 500 ------- 2 0.0 1.0 71 71
r 0.93 0 1 cbr 500 ------- 2 0.0 1.0 69 69
+ 0.93 0 1 cbr 1000 ------- 2 0.0 1.0 172 172
+ 0.93 0 1 cbr 500 ------- 2 0.0 1.0 173 173
d 0.93 0 1 cbr 500 ------- 2 0.0 1.0 173 173
- 0.932 0 1 cbr 1000 ------- 2 0.0 1.0 72 72
+ 0.935 0 1 cbr 1000 ------- 2 0.0 1.0 174 174
+ 0.935 0 1 cbr 500 ------- 2 0.0 1.0 175 175
d 0.935 0 1 cbr 500 ------- 2 0.0 1.0 175 175
r 0.938 0 1 cbr 1000 ------- 2 0.0 1.0 70 70
- 0.94 0 1 cbr 500 ------- 2 0.0 1.0 73 73
+ 0.94 0 1 cbr 1000 ------- 2 0.0 1.0 176 176
+ 0.94 0 1 cbr 500 ------- 2 0.0 1.0 177 177
d 0.94 0 1 cbr 500 ------- 2 0.0 1.0 177 177
r 0.942 0 1 cbr 500 ------- 2 0.0 1.0 71 71
- 0.944 0 1 cbr 1000 ------- 2 0.0 1.0 74 74
+ 0.945 0 1 cbr 1000 ------- 2 0.0 1.0 178 178
+ 0.945 0 1 cbr 500 ------- 2 0.0 1.0 179 179
d 0.945 0 1 cbr 500 ------- 2 0.0 1.0 179 179
r 0.95 0 1 cbr 1000 ------- 2 0.0 1.0 72 72
+ 0.95 0 1 cbr 1000 ------- 2 0.0 1.0 180 180
d 0.95 0 1 cbr 1000 ------- 2 0.0 1.0 180 180
+ 0.95 0 1 cbr 500 ------- 2 0.0 1.0 181 181
d 0.95 0 1 cbr 500 ------- 2 0.0 1.0 181 181
- 0.952 0 1 cbr 500 ------- 2 0.0 1.0 75 75
r 0.954 0 1 cbr 500 ------- 2 0.0 1.0 73 73
+ 0.955 0 1 cbr 1000 ------- 2 0.0 1.0 182 182
+ 0.955 0 1 cbr 500 ------- 2 0.0 1.0 183 183
d 0.955 0 1 cbr 500 ------- 2 0.0 1.0 183 183
- 0.956 0 1 cbr 1000 ------- 2 0.0 1.0 76 76
+ 0.96 0 1 cbr 1000 ------- 2 0.0 1.0 184 184
+ 0.96 0 1 cbr 500 ------- 2 0.0 1.0 185 185
d 0.96 0 1 cbr 500 ------- 2 0.0 1.0 185 185
r 0.962 0 1 cbr 1000 ------- 2 0.0 1.0 74 74
- 0.964 0 1 cbr 500 ------- 2 0.0 1.0 77 77
+ 0.965 0 1 cbr 1000 ------- 2 0.0 1.0 186 186
+ 0.965 0 1 cbr 500 ------- 2 0.0 1.0 187 187
d 0.965 0 1 cbr 500 ------- 2 0.0 1.0 187 187
r 0.966 0 1 cbr 500 ------- 2 0.0 1.0 75 75
- 0.968 0 1 cbr 1000 ------- 2 0.0 1.0 78 78
+ 0.97 0 1 cbr 1000 ------- 2 0.0 1.0 188 188
+ 0.97 0 1 cbr 500 ------- 2 0.0 1.0 189 189
d 0.97 0 1 cbr 500 ------- 2 0.0 1.0 189 189
r 0.974 0 1 cbr 1000 ------- 2 0.0 1.0 76 76
+ 0.975 0 1 cbr 1000 ------- 2 0.0 1.0 190 190
d 0.975 0 1 cbr 1000 ------- 2 0.0 1.0 190 190
+ 0.975 0 1 cbr 500 ------- 2 0.0 1.0 191 191
d 0.975 0 1 cbr 500 ------- 2 0.0 1.0 191 191
- 0.976 0 1 cbr 500 ------- 2 0.0 1.0 79 79
r 0.978 0 1 cbr 500 ------- 2 0.0 1.0 77 77
+ 0.98 0 1 cbr 1000 ------- 2 0.0 1.0 192 192
+ 0.98 0 1 cbr 500 ------- 2 0.0 1.0 193 193
d 0.98 0 1 cbr 500 ------- 2 0.0 1.0 193 193
- 0.98 0 1 cbr 1000 ------- 2 0.0 1.0 80 80
+ 0.985 0 1 cbr 1000 ------- 2 0.0 1.0 194 194
+ 0.985 0 1 cbr 500 ------- 2 0.0 1.0 195 195
d 0.985 0 1 cbr 500 ------- 2 0.0 1.0 195 195
r 0.986 0 1 cbr 1000 ------- 2 0.0 1.0 78 78
- 0.988 0 1 cbr 500 ------- 2 0.0 1.0 81 81
r 0.99 0 1 cbr 500 ------- 2 0.0 1.0 79 79
+ 0.99 0 1 cbr 1000 ------- 2 0.0 1.0 196 196
+ 0.99 0 1 cbr 500 ------- 2 0.0 1.0 197 197
d 0.99 0 1 cbr 500 ------- 2 0.0 1.0 197 197
- 0.992 0 1 cbr 1000 ------- 2 0.0 1.0 82 82
+ 0.995 0 1 cbr 1000 ------- 2 0.0 1.0 198 198
+ 0.995 0 1 cbr 500 ------- 2 0.0 1.0 199 199
d 0.995 0 1 cbr 500 ------- 2 0.0 1.0 199 199
r 0.998 0 1 cbr 1000 ------- 2 0.0 1.0 80 80
- 1 0 1 cbr 500 ------- 2 0.0 1.0 83 83
+ 1 0 1 cbr 1000 ------- 2 0.0 1.0 200 200
+ 1 0 1 cbr 500 ------- 2 0.0 1.0 201 201
d 1 0 1 cbr 500 ------- 2 0.0 1.0 201 201
r 1.002 0 1 cbr 500 ------- 2 0.0 1.0 81 81
- 1.004 0 1 cbr 1000 ------- 2 0.0 1.0 86 86
+ 1.005 0 1 cbr 1000 ------- 2 0.0 1.0 202 202
+ 1.005 0 1 cbr 500 ------- 2 0.0 1.0 203 203
d 1.005 0 1 cbr 500 ------- 2 0.0 1.0 203 203
+ 1.01 0 1 cbr 1000 ------- 2 0.0 1.0 204 204
d 1.01 0 1 cbr 1000 ------- 2 0.0 1.0 204 204
+ 1.01 0 1 cbr 500 ------- 2 0.0 1.0 205 205
d 1.01 0 1 cbr 500 ------- 2 0.0 1.0 205 205
r 1.01 0 1 cbr 1000 ------- 2 0.0 1.0 82 82
- 1.012 0 1 cbr 1000 ------- 2 0.0 1.0 88 88
r 1.014 0 1 cbr 500 ------- 2 0.0 1.0 83 83
+ 1.015 0 1 cbr 1000 ------- 2 0.0 1.0 206 206
+ 1.015 0 1 cbr 500 ------- 2 0.0 1.0 207 207
d 1.015 0 1 cbr 500 ------- 2 0.0 1.0 207 207
+ 1.02 0 1 cbr 1000 ------- 2 0.0 1.0 208 208
d 1.02 0 1 cbr 1000 ------- 2 0.0 1.0 208 208
+ 1.02 0 1 cbr 500 ------- 2 0.0 1.0 209 209
d 1.02 0 1 cbr 500 ------- 2 0.0 1.0 209 209
- 1.02 0 1 cbr 1000 ------- 2 0.0 1.0 90 90
r 1.022 0 1 cbr 1000 ------- 2 0.0 1.0 86 86
+ 1.025 0 1 cbr 1000 ------- 2 0.0 1.0 210 210
+ 1.025 0 1 cbr 500 ------- 2 0.0 1.0 211 211
d 1.025 0 1 cbr 500 ------- 2 0.0 1.0 211 211
- 1.028 0 1 cbr 1000 ------- 2 0.0 1.0 92 92
+ 1.03 0 1 cbr 1000 ------- 2 0.0 1.0 212 212
+ 1.03 0 1 cbr 500 ------- 2 0.0 1.0 213 213
d 1.03 0 1 cbr 500 ------- 2 0.0 1.0 213 213
r 1.03 0 1 cbr 1000 ------- 2 0.0 1.0 88 88
+ 1.035 0 1 cbr 1000 ------- 2 0.0 1.0 214 214
d 1.035 0 1 cbr 1000 ------- 2 0.0 1.0 214 214
+ 1.035 0 1 cbr 500 ------- 2 0.0 1.0 215 215
d 1.035 0 1 cbr 500 ------- 2 0.0 1.0 215 215
- 1.036 0 1 cbr 1000 ------- 2 0.0 1.0 96 96
r 1.038 0 1 cbr 1000 ------- 2 0.0 1.0 90 90
+ 1.04 0 1 cbr 1000 ------- 2 0.0 1.0 216 216
+ 1.04 0 1 cbr 500 ------- 2 0.0 1.0 217 217
d 1.04 0 1 cbr 500 ------- 2 0.0 1.0 217 217
- 1.044 0 1 cbr 1000 ------- 2 0.0 1.0 98 98
+ 1.045 0 1 cbr 1000 ------- 2 0.0 1.0 218 218
+ 1.045 0 1 cbr 500 ------- 2 0.0 1.0 219 219
d 1.045 0 1 cbr 500 ------- 2 0.0 1.0 219 219
r 1.046 0 1 cbr 1000 ------- 2 0.0 1.0 92 92
+ 1.05 0 1 cbr 1000 ------- 2 0.0 1.0 220 220
d 1.05 0 1 cbr 1000 ------- 2 0.0 1.0 220 220
+ 1.05 0 1 cbr 500 ------- 2 0.0 1.0 221 221
d 1.05 0 1 cbr 500 ------- 2 0.0 1.0 221 221
- 1.052 0 1 cbr 1000 ------- 2 0.0 1.0 100 100
r 1.054 0 1 cbr 1000 ------- 2 0.0 1.0 96 96
+ 1.055 0 1 cbr 1000 ------- 2 0.0 1.0 222 222
+ 1.055 0 1 cbr 500 ------- 2 0.0 1.0 223 223
d 1.055 0 1 cbr 500 ------- 2 0.0 1.0 223 223
+ 1.06 0 1 cbr 1000 ------- 2 0.0 1.0 224 224
d 1.06 0 1 cbr 1000 ------- 2 0.0 1.0 224 224
+ 1.06 0 1 cbr 500 ------- 2 0.0 1.0 225 225
d 1.06 0 1 cbr 500 ------- 2 0.0 1.0 225 225
- 1.06 0 1 cbr 1000 ------- 2 0.0 1.0 102 102
r 1.062 0 1 cbr 1000 ------- 2 0.0 1.0 98 98
+ 1.065 0 1 cbr 1000 ------- 2 0.0 1.0 226 226
+ 1.065 0 1 cbr 500 ------- 2 0.0 1.0 227 227
d 1.065 0 1 cbr 500 ------- 2 0.0 1.0 227 227
- 1.068 0 1 cbr 1000 ------- 2 0.0 1.0 104 104
+ 1.07 0 1 cbr 1000 ------- 2 0.0 1.0 228 228
+ 1.07 0 1 cbr 500 ------- 2 0.0 1.0 229 229
d 1.07 0 1 cbr 500 ------- 2 0.0 1.0 229 229
r 1.07 0 1 cbr 1000 ------- 2 0.0 1.0 100 100
+ 1.075 0 1 cbr 1000 ------- 2 0.0 1.0 230 230
d 1.075 0 1 cbr 1000 ------- 2 0.0 1.0 230 230
+ 1.075 0 1 cbr 500 ------- 2 0.0 1.0 231 231
d 1.075 0 1 cbr 500 ------- 2 0.0 1.0 231 231
- 1.076 0 1 cbr 1000 ------- 2 0.0 1.0 106 106
r 1.078 0 1 cbr 1000 ------- 2 0.0 1.0 102 102
+ 1.08 0 1 cbr 1000 ------- 2 0.0 1.0 232 232
+ 1.08 0 1 cbr 500 ------- 2 0.0 1.0 233 233
d 1.08 0 1 cbr 500 ------- 2 0.0 1.0 233 233
- 1.084 0 1 cbr 1000 ------- 2 0.0 1.0 110 110
+ 1.085 0 1 cbr 1000 ------- 2 0.0 1.0 234 234
+ 1.085 0 1 cbr 500 ------- 2 0.0 1.0 235 235
d 1.085 0 1 cbr 500 ------- 2 0.0 1.0 235 235
r 1.086 0 1 cbr 1000 ------- 2 0.0 1.0 104 104
+ 1.09 0 1 cbr 1000 ------- 2 0.0 1.0 236 236
d 1.09 0 1 cbr 1000 ------- 2 0.0 1.0 236 236
+ 1.09 0 1 cbr 500 ------- 2 0.0 1.0 237 237
d 1.09 0 1 cbr 500 ------- 2 0.0 1.0 237 237
- 1.092 0 1 cbr 1000 ------- 2 0.0 1.0 112 112
r 1.094 0 1 cbr 1000 ------- 2 0.0 1.0 106 106
+ 1.095 0 1 cbr 1000 ------- 2 0.0 1.0 238 238
+ 1.095 0 1 cbr 500 ------- 2 0.0 1.0 239 239
d 1.095 0 1 cbr 500 ------- 2 0.0 1.0 239 239
+ 1.1 0 1 cbr 1000 ------- 2 0.0 1.0 240 240
d 1.1 0 1 cbr 1000 ------- 2 0.0 1.0 240 240
+ 1.1 0 1 cbr 500 ------- 2 0.0 1.0 241 241
d 1.1 0 1 cbr 500 ------- 2 0.0 1.0 241 241
- 1.1 0 1 cbr 1000 ------- 2 0.0 1.0 114 114
r 1.102 0 1 cbr 1000 ------- 2 0.0 1.0 110 110
+ 1.105 0 1 cbr 1000 ------- 2 0.0 1.0 242 242
+ 1.105 0 1 cbr 500 ------- 2 0.0 1.0 243 243
d 1.105 0 1 cbr 500 ------- 2 0.0 1.0 243 243
- 1.108 0 1 cbr 1000 ------- 2 0.0 1.0 116 116
+ 1.11 0 1 cbr 1000 ------- 2 0.0 1.0 244 244
+ 1.11 0 1 cbr 500 ------- 2 0.0 1.0 245 245
d 1.11 0 1 cbr 500 ------- 2 0.0 1.0 245 245
r 1.11 0 1 cbr 1000 ------- 2 0.0 1.0 112 112
+ 1.115 0 1 cbr 1000 ------- 2 0.0 1.0 246 246
d 1.115 0 1 cbr 1000 ------- 2 0.0 1.0 246 246
+ 1.115 0 1 cbr 500 ------- 2 0.0 1.0 247 247
d 1.115 0 1 cbr 500 ------- 2 0.0 1.0 247 247
- 1.116 0 1 cbr 1000 ------- 2 0.0 1.0 120 120
r 1.118 0 1 cbr 1000 ------- 2 0.0 1.0 114 114
+ 1.12 0 1 cbr 1000 ------- 2 0.0 1.0 248 248
+ 1.12 0 1 cbr 500 ------- 2 0.0 1.0 249 249
d 1.12 0 1 cbr 500 ------- 2 0.0 1.0 249 249
- 1.124 0 1 cbr 1000 ------- 2 0.0 1.0 122 122
+ 1.125 0 1 cbr 1000 ------- 2 0.0 1.0 250 250
+ 1.125 0 1 cbr 500 ------- 2 0.0 1.0 251 251
d 1.125 0 1 cbr 500 ------- 2 0.0 1.0 251 251
r 1.126 0 1 cbr 1000 ------- 2 0.0 1.0 116 116
+ 1.13 0 1 cbr 1000 ------- 2 0.0 1.0 252 252
d 1.13 0 1 cbr 1000 ------- 2 0.0 1.0 252 252
+ 1.13 0 1 cbr 500 ------- 2 0.0 1.0 253 253
d 1.13 0 1 cbr 500 ------- 2 0.0 1.0 253 253
- 1.132 0 1 cbr 1000 ------- 2 0.0 1.0 124 124
r 1.134 0 1 cbr 1000 ------- 2 0.0 1.0 120 120
+ 1.135 0 1 cbr 1000 ------- 2 0.0 1.0 254 254
+ 1.135 0 1 cbr 500 ------- 2 0.0 1.0 255 255
d 1.135 0 1 cbr 500 ------- 2 0.0 1.0 255 255
+ 1.14 0 1 cbr 1000 ------- 2 0.0 1.0 256 256
d 1.14 0 1 cbr 1000 ------- 2 0.0 1.0 256 256
+ 1.14 0 1 cbr 500 ------- 2 0.0 1.0 257 257
d 1.14 0 1 cbr 500 ------- 2 0.0 1.0 257 257
- 1.14 0 1 cbr 1000 ------- 2 0.0 1.0 126 126
r 1.142 0 1 cbr 1000 ------- 2 0.0 1.0 122 122
+ 1.145 0 1 cbr 1000 ------- 2 0.0 1.0 258 258
+ 1.145 0 1 cbr 500 ------- 2 0.0 1.0 259 259
d 1.145 0 1 cbr 500 ------- 2 0.0 1.0 259 259
- 1.148 0 1 cbr 1000 ------- 2 0.0 1.0 128 128
+ 1.15 0 1 cbr 1000 ------- 2 0.0 1.0 260 260
+ 1.15 0 1 cbr 500 ------- 2 0.0 1.0 261 261
d 1.15 0 1 cbr 500 ------- 2 0.0 1.0 261 261
r 1.15 0 1 cbr 1000 ------- 2 0.0 1.0 124 124
+ 1.155 0 1 cbr 1000 ------- 2 0.0 1.0 262 262
d 1.155 0 1 cbr 1000 ------- 2 0.0 1.0 262 262
+ 1.155 0 1 cbr 500 ------- 2 0.0 1.0 263 263
d 1.155 0 1 cbr 500 ------- 2 0.0 1.0 263 263
- 1.156 0 1 cbr 1000 ------- 2 0.0 1.0 130 130
r 1.158 0 1 cbr 1000 ------- 2 0.0 1.0 126 126
+ 1.16 0 1 cbr 1000 ------- 2 0.0 1.0 264 264
+ 1.16 0 1 cbr 500 ------- 2 0.0 1.0 265 265
d 1.16 0 1 cbr 500 ------- 2 0.0 1.0 265 265
- 1.164 0 1 cbr 1000 ------- 2 0.0 1.0 134 134
+ 1.165 0 1 cbr 1000 ------- 2 0.0 1.0 266 266
+ 1.165 0 1 cbr 500 ------- 2 0.0 1.0 267 267
d 1.165 0 1 cbr 500 ------- 2 0.0 1.0 267 267
r 1.166 0 1 cbr 1000 ------- 2 0.0 1.0 128 128
+ 1.17 0 1 cbr 1000 ------- 2 0.0 1.0 268 268
d 1.17 0 1 cbr 1000 ------- 2 0.0 1.0 268 268
+ 1.17 0 1 cbr 500 ------- 2 0.0 1.0 269 269
d 1.17 0 1 cbr 500 ------- 2 0.0 1.0 269 269
- 1.172 0 1 cbr 1000 ------- 2 0.0 1.0 136 136
r 1.174 0 1 cbr 1000 ------- 2 0.0 1.0 130 130
+ 1.175 0 1 cbr 1000 ------- 2 0.0 1.0 270 270
+ 1.175 0 1 cbr 500 ------- 2 0.0 1.0 271 271
d 1.175 0 1 cbr 500 ------- 2 0.0 1.0 271 271
+ 1.18 0 1 cbr 1000 ------- 2 0.0 1.0 272 272
d 1.18 0 1 cbr 1000 ------- 2 0.0 1.0 272 272
+ 1.18 0 1 cbr 500 ------- 2 0.0 1.0 273 273
d 1.18 0 1 cbr 500 ------- 2 0.0 1.0 273 273
- 1.18 0 1 cbr 1000 ------- 2 0.0 1.0 138 138
r 1.182 0 1 cbr 1000 ------- 2 0.0 1.0 134 134
+ 1.185 0 1 cbr 1000 ------- 2 0.0 1.0 274 274
+ 1.185 0 1 cbr 500 ------- 2 0.0 1.0 275 275
d 1.185 0 1 cbr 500 ------- 2 0.0 1.0 275 275
- 1.188 0 1 cbr 1000 ------- 2 0.0 1.0 140 140
+ 1.19 0 1 cbr 1000 ------- 2 0.0 1.0 276 276
+ 1.19 0 1 cbr 500 ------- 2 0.0 1.0 277 277
d 1.19 0 1 cbr 500 ------- 2 0.0 1.0 277 277
r 1.19 0 1 cbr 1000 ------- 2 0.0 1.0 136 136
+ 1.195 0 1 cbr 1000 ------- 2 0.0 1.0 278 278
d 1.195 0 1 cbr 1000 ------- 2 0.0 1.0 278 278
+ 1.195 0 1 cbr 500 ------- 2 0.0 1.0 279 279
d 1.195 0 1 cbr 500 ------- 2 0.0 1.0 279 279
- 1.196 0 1 cbr 1000 ------- 2 0.0 1.0 144 144
r 1.198 0 1 cbr 1000 ------- 2 0.0 1.0 138 138
+ 1.2 0 1 cbr 1000 ------- 2 0.0 1.0 280 280
+ 1.2 0 1 cbr 500 ------- 2 0.0 1.0 281 281
d 1.2 0 1 cbr 500 ------- 2 0.0 1.0 281 281
- 1.204 0 1 cbr 1000 ------- 2 0.0 1.0 146 146
+ 1.205 0 1 cbr 1000 ------- 2 0.0 1.0 282 282
+ 1.205 0 1 cbr 500 ------- 2 0.0 1.0 283 283
d 1.205 0 1 cbr 500 ------- 2 0.0 1.0 283 283
r 1.206 0 1 cbr 1000 ------- 2 0.0 1.0 140 140
+ 1.21 0 1 cbr 1000 ------- 2 0.0 1.0 284 284
d 1.21 0 1 cbr 1000 ------- 2 0.0 1.0 284 284
+ 1.21 0 1 cbr 500 ------- 2 0.0 1.0 285 285
d 1.21 0 1 cbr 500 ------- 2 0.0 1.0 285 285
- 1.212 0 1 cbr 1000 ------- 2 0.0 1.0 148 148
r 1.214 0 1 cbr 1000 ------- 2 0.0 1.0 144 144
+ 1.215 0 1 cbr 1000 ------- 2 0.0 1.0 286 286
+ 1.215 0 1 cbr 500 ------- 2 0.0 1.0 287 287
d 1.215 0 1 cbr 500 ------- 2 0.0 1.0 287 287
+ 1.22 0 1 cbr 1000 ------- 2 0.0 1.0 288 288
d 1.22 0 1 cbr 1000 ------- 2 0.0 1.0 288 288
+ 1.22 0 1 cbr 500 ------- 2 0.0 1.0 289 289
d 1.22 0 1 cbr 500 ------- 2 0.0 1.0 289 289
- 1.22 0 1 cbr 1000 ------- 2 0.0 1.0 150 150
r 1.222 0 1 cbr 1000 ------- 2 0.0 1.0 146 146
+ 1.225 0 1 cbr 1000 ------- 2 0.0 1.0 290 290
+ 1.225 0 1 cbr 500 ------- 2 0.0 1.0 291 291
d 1.225 0 1 cbr 500 ------- 2 0.0 1.0 291 291
- 1.228 0 1 cbr 1000 ------- 2 0.0 1.0 152 152
+ 1.23 0 1 cbr 1000 ------- 2 0.0 1.0 292 292
+ 1.23 0 1 cbr 500 ------- 2 0.0 1.0 293 293
d 1.23 0 1 cbr 500 ------- 2 0.0 1.0 293 293
r 1.23 0 1 cbr 1000 ------- 2 0.0 1.0 148 148
+ 1.235 0 1 cbr 1000 ------- 2 0.0 1.0 294 294
d 1.235 0 1 cbr 1000 ------- 2 0.0 1.0 294 294
+ 1.235 0 1 cbr 500 ------- 2 0.0 1.0 295 295
d 1.235 0 1 cbr 500 ------- 2 0.0 1.0 295 295
- 1.236 0 1 cbr 1000 ------- 2 0.0 1.0 154 154
r 1.238 0 1 cbr 1000 ------- 2 0.0 1.0 150 150
+ 1.24 0 1 cbr 1000 ------- 2 0.0 1.0 296 296
+ 1.24 0 1 cbr 500 ------- 2 0.0 1.0 297 297
d 1.24 0 1 cbr 500 ------- 2 0.0 1.0 297 297
- 1.244 0 1 cbr 1000 ------- 2 0.0 1.0 158 158
+ 1.245 0 1 cbr 1000 ------- 2 0.0 1.0 298 298
+ 1.245 0 1 cbr 500 ------- 2 0.0 1.0 299 299
d 1.245 0 1 cbr 500 ------- 2 0.0 1.0 299 299
r 1.246 0 1 cbr 1000 ------- 2 0.0 1.0 152 152
+ 1.25 0 1 cbr 1000 ------- 2 0.0 1.0 300 300